
     Program PWSCF v.6.0 (svn rev. 13079) starts on  7Aug2024 at 22:50:56 

     This program is part of the open-source Quantum ESPRESSO suite
     for quantum simulation of materials; please cite
         "P. Giannozzi et al., J. Phys.:Condens. Matter 21 395502 (2009);
          URL http://www.quantum-espresso.org", 
     in publications or presentations arising from this work. More details at
     http://www.quantum-espresso.org/quote

     Parallel version (MPI), running on    48 processors
     R & G space division:  proc/nbgrp/npool/nimage =      48
     Waiting for input...
     Reading input from standard input

     Current dimensions of program PWSCF are:
     Max number of different atomic species (ntypx) = 10
     Max number of k-points (npk) =  40000
     Max angular momentum in pseudopotentials (lmaxx) =  3

     Atomic positions and unit cell read from directory:
     ./tmp/aln.save/

               file Zn.pbesol-dnl-rrkjus_psl.1.0.0.UPF: wavefunction(s)  3D renormalized

     Subspace diagonalization in iterative solution of the eigenvalue problem:
     one sub-group per band group will be used
     ELPA distributed-memory algorithm (size of sub-group:  4*  4 procs)


     Parallelization info
     --------------------
     sticks:   dense  smooth     PW     G-vecs:    dense   smooth      PW
     Min         113      64     17                 5389     2326     341
     Max         115      65     18                 5392     2331     346
     Sum        5437    3103    859               258683   111743   16559



     bravais-lattice index     =            0
     lattice parameter (alat)  =      11.8643  a.u.
     unit-cell volume          =    1155.7332 (a.u.)^3
     number of atoms/cell      =           16
     number of atomic types    =            3
     number of electrons       =        73.00
     number of Kohn-Sham states=           44
     kinetic-energy cutoff     =      80.0000  Ry
     charge density cutoff     =     560.0000  Ry
     Exchange-correlation      = PBESOL ( 1  4 10  8 0 0)

     celldm(1)=  11.864350  celldm(2)=   0.000000  celldm(3)=   0.000000
     celldm(4)=   0.000000  celldm(5)=   0.000000  celldm(6)=   0.000000

     crystal axes: (cart. coord. in units of alat)
               a(1) = (   1.000000   0.000000   0.000000 )  
               a(2) = (  -0.500000   0.866025   0.000000 )  
               a(3) = (   0.000000   0.000000   0.799089 )  

     reciprocal axes: (cart. coord. in units 2 pi/alat)
               b(1) = (  1.000000  0.577350 -0.000000 )  
               b(2) = (  0.000000  1.154701  0.000000 )  
               b(3) = (  0.000000 -0.000000  1.251425 )  


     PseudoPot. # 1 for Al read from file:
     pseudo/Al.pbesol-n-rrkjus_psl.1.0.0.UPF
     MD5 check sum: dbcefca01057e646ce9c389674ce64eb
     Pseudo is Ultrasoft + core correction, Zval =  3.0
     Generated using "atomic" code by A. Dal Corso  v.6.3
     Using radial grid of 1135 points,  6 beta functions with: 
                l(1) =   0
                l(2) =   0
                l(3) =   1
                l(4) =   1
                l(5) =   2
                l(6) =   2
     Q(r) pseudized with 0 coefficients 


     PseudoPot. # 2 for  N read from file:
     pseudo/N.pbesol-n-rrkjus_psl.1.0.0.UPF
     MD5 check sum: 006b6b9dfb5634708511e9f3c875aba4
     Pseudo is Ultrasoft + core correction, Zval =  5.0
     Generated using "atomic" code by A. Dal Corso  v.6.3MaX
     Using radial grid of 1085 points,  4 beta functions with: 
                l(1) =   0
                l(2) =   0
                l(3) =   1
                l(4) =   1
     Q(r) pseudized with 0 coefficients 


     PseudoPot. # 3 for Zn read from file:
     pseudo/Zn.pbesol-dnl-rrkjus_psl.1.0.0.UPF
     MD5 check sum: a309e45c14cefa6e6c805f9539203eb5
     Pseudo is Ultrasoft + core correction, Zval = 12.0
     Generated using "atomic" code by A. Dal Corso  v.6.2.2
     Using radial grid of 1201 points,  6 beta functions with: 
                l(1) =   0
                l(2) =   0
                l(3) =   1
                l(4) =   1
                l(5) =   2
                l(6) =   2
     Q(r) pseudized with 0 coefficients 


     atomic species   valence    mass     pseudopotential
        Al             3.00    26.98150     Al( 1.00)
        N              5.00    14.00670      N( 1.00)
        Zn            12.00    65.38000     Zn( 1.00)

      6 Sym. Ops. (no inversion) found ( 4 have fractional translation)



   Cartesian axes

     site n.     atom                  positions (alat units)
         1           Zn  tau(   1) = (   0.2499995   0.1443379   0.3953266  )
         2           Al  tau(   2) = (   0.0013817   0.5781486   0.3993193  )
         3           Al  tau(   3) = (   0.7499995   0.1427418   0.3993193  )
         4           Al  tau(   4) = (   0.4986173   0.5781486   0.3993193  )
         5           Al  tau(   5) = (  -0.0031986   0.2905218   0.7980060  )
         6           Al  tau(   6) = (  -0.2499995   0.7179936   0.7980060  )
         7           Al  tau(   7) = (   0.5031996   0.2905218   0.7980060  )
         8           Al  tau(   8) = (   0.2500005   0.7216875   0.7971723  )
         9           N   tau(   9) = (   0.2499995   0.1443379   0.7274444  )
        10           N   tau(  10) = (   0.0012044   0.5780462   0.7022690  )
        11           N   tau(  11) = (   0.7499995   0.1429466   0.7022690  )
        12           N   tau(  12) = (   0.4987946   0.5780462   0.7022690  )
        13           N   tau(  13) = (  -0.0151628   0.2974294   0.2999492  )
        14           N   tau(  14) = (  -0.2499995   0.7041785   0.2999492  )
        15           N   tau(  15) = (   0.5151638   0.2974294   0.2999492  )
        16           N   tau(  16) = (   0.2500005   0.7216875   0.3033679  )

     number of k points=    72  gaussian smearing, width (Ry)=  0.0200
                       cart. coord. in units 2pi/alat
        k(    1) = (   0.0625000   0.1082532   0.1564281), wk =   0.0312500
        k(    2) = (   0.0625000   0.1082532   0.4692844), wk =   0.0312500
        k(    3) = (   0.0625000   0.2525907   0.1564281), wk =   0.0312500
        k(    4) = (   0.0625000   0.2525907   0.4692844), wk =   0.0312500
        k(    5) = (   0.0625000   0.3969283   0.1564281), wk =   0.0312500
        k(    6) = (   0.0625000   0.3969283   0.4692844), wk =   0.0312500
        k(    7) = (   0.0625000   0.5412659   0.1564281), wk =   0.0312500
        k(    8) = (   0.0625000   0.5412659   0.4692844), wk =   0.0312500
        k(    9) = (   0.0625000  -0.4690971   0.1564281), wk =   0.0312500
        k(   10) = (   0.0625000  -0.4690971   0.4692844), wk =   0.0312500
        k(   11) = (   0.0625000  -0.3247595   0.1564281), wk =   0.0312500
        k(   12) = (   0.0625000  -0.3247595   0.4692844), wk =   0.0312500
        k(   13) = (   0.0625000  -0.1804220   0.1564281), wk =   0.0312500
        k(   14) = (   0.0625000  -0.1804220   0.4692844), wk =   0.0312500
        k(   15) = (   0.0625000  -0.0360844   0.1564281), wk =   0.0156250
        k(   16) = (   0.0625000  -0.0360844   0.4692844), wk =   0.0156250
        k(   17) = (   0.1875000   0.3247595   0.1564281), wk =   0.0312500
        k(   18) = (   0.1875000   0.3247595   0.4692844), wk =   0.0312500
        k(   19) = (   0.1875000   0.4690971   0.1564281), wk =   0.0312500
        k(   20) = (   0.1875000   0.4690971   0.4692844), wk =   0.0312500
        k(   21) = (   0.1875000   0.6134347   0.1564281), wk =   0.0312500
        k(   22) = (   0.1875000   0.6134347   0.4692844), wk =   0.0312500
        k(   23) = (   0.1875000  -0.3969283   0.1564281), wk =   0.0312500
        k(   24) = (   0.1875000  -0.3969283   0.4692844), wk =   0.0312500
        k(   25) = (   0.1875000  -0.2525907   0.1564281), wk =   0.0312500
        k(   26) = (   0.1875000  -0.2525907   0.4692844), wk =   0.0312500
        k(   27) = (   0.1875000  -0.1082532   0.1564281), wk =   0.0156250
        k(   28) = (   0.1875000  -0.1082532   0.4692844), wk =   0.0156250
        k(   29) = (   0.3125000   0.5412659   0.1564281), wk =   0.0312500
        k(   30) = (   0.3125000   0.5412659   0.4692844), wk =   0.0312500
        k(   31) = (   0.3125000   0.6856034   0.1564281), wk =   0.0312500
        k(   32) = (   0.3125000   0.6856034   0.4692844), wk =   0.0312500
        k(   33) = (   0.3125000  -0.3247595   0.1564281), wk =   0.0312500
        k(   34) = (   0.3125000  -0.3247595   0.4692844), wk =   0.0312500
        k(   35) = (   0.3125000  -0.1804220   0.1564281), wk =   0.0156250
        k(   36) = (   0.3125000  -0.1804220   0.4692844), wk =   0.0156250
        k(   37) = (   0.4375000   0.7577722   0.1564281), wk =   0.0312500
        k(   38) = (   0.4375000   0.7577722   0.4692844), wk =   0.0312500
        k(   39) = (   0.4375000  -0.2525907   0.1564281), wk =   0.0156250
        k(   40) = (   0.4375000  -0.2525907   0.4692844), wk =   0.0156250
        k(   41) = (  -0.0625000  -0.2525907   0.1564281), wk =   0.0312500
        k(   42) = (  -0.0625000  -0.2525907   0.4692844), wk =   0.0312500
        k(   43) = (  -0.0625000  -0.3969283   0.1564281), wk =   0.0312500
        k(   44) = (  -0.0625000  -0.3969283   0.4692844), wk =   0.0312500
        k(   45) = (  -0.0625000  -0.5412659   0.1564281), wk =   0.0312500
        k(   46) = (  -0.0625000  -0.5412659   0.4692844), wk =   0.0312500
        k(   47) = (  -0.0625000   0.4690971   0.1564281), wk =   0.0312500
        k(   48) = (  -0.0625000   0.4690971   0.4692844), wk =   0.0312500
        k(   49) = (  -0.0625000   0.3247595   0.1564281), wk =   0.0312500
        k(   50) = (  -0.0625000   0.3247595   0.4692844), wk =   0.0312500
        k(   51) = (  -0.0625000   0.1804220   0.1564281), wk =   0.0312500
        k(   52) = (  -0.0625000   0.1804220   0.4692844), wk =   0.0312500
        k(   53) = (  -0.0625000   0.0360844   0.1564281), wk =   0.0156250
        k(   54) = (  -0.0625000   0.0360844   0.4692844), wk =   0.0156250
        k(   55) = (  -0.1875000  -0.4690971   0.1564281), wk =   0.0312500
        k(   56) = (  -0.1875000  -0.4690971   0.4692844), wk =   0.0312500
        k(   57) = (  -0.1875000  -0.6134347   0.1564281), wk =   0.0312500
        k(   58) = (  -0.1875000  -0.6134347   0.4692844), wk =   0.0312500
        k(   59) = (  -0.1875000   0.3969283   0.1564281), wk =   0.0312500
        k(   60) = (  -0.1875000   0.3969283   0.4692844), wk =   0.0312500
        k(   61) = (  -0.1875000   0.2525907   0.1564281), wk =   0.0312500
        k(   62) = (  -0.1875000   0.2525907   0.4692844), wk =   0.0312500
        k(   63) = (  -0.1875000   0.1082532   0.1564281), wk =   0.0156250
        k(   64) = (  -0.1875000   0.1082532   0.4692844), wk =   0.0156250
        k(   65) = (  -0.3125000  -0.6856034   0.1564281), wk =   0.0312500
        k(   66) = (  -0.3125000  -0.6856034   0.4692844), wk =   0.0312500
        k(   67) = (  -0.3125000   0.3247595   0.1564281), wk =   0.0312500
        k(   68) = (  -0.3125000   0.3247595   0.4692844), wk =   0.0312500
        k(   69) = (  -0.3125000   0.1804220   0.1564281), wk =   0.0156250
        k(   70) = (  -0.3125000   0.1804220   0.4692844), wk =   0.0156250
        k(   71) = (  -0.4375000   0.2525907   0.1564281), wk =   0.0156250
        k(   72) = (  -0.4375000   0.2525907   0.4692844), wk =   0.0156250

     Dense  grid:   258683 G-vectors     FFT dimensions: (  90,  90,  72)

     Smooth grid:   111743 G-vectors     FFT dimensions: (  72,  72,  54)

     Estimated max dynamical RAM per process >       8.88Mb

     Estimated total allocated dynamical RAM >     426.30Mb

     The potential is recalculated from file :
     ./tmp/aln.save/charge-density.dat

     Starting wfc are   69 randomized atomic wfcs

     Band Structure Calculation
     Davidson diagonalization with overlap

     ethr =  1.37E-07,  avg # of iterations = 19.8

     total cpu time spent up to now is       87.9 secs

     End of band structure calculation

          k = 0.0625 0.1083 0.1564 ( 13967 PWs)   bands (ev):

    -7.9968  -6.2825  -6.2170  -6.1425  -6.0618  -5.5628  -5.5051  -5.4913
     1.1633   1.2529   1.2995   1.5351   1.6716   1.7075   1.9950   2.0371
     2.0989   2.8438   2.8956   2.9789   3.7952   3.9135   4.1093   4.7692
     4.8945   4.9405   5.5047   5.5695   5.7244   5.9937   6.0567   6.1143
     6.2302   6.3561   6.7362   7.1099   7.1987  11.3192  12.5038  12.5727
    12.6300  12.9428  13.0555  13.1484

          k = 0.0625 0.1083 0.4693 ( 13926 PWs)   bands (ev):

    -7.5557  -6.7935  -6.0547  -5.9981  -5.9273  -5.7330  -5.6923  -5.6417
     1.0291   1.0771   1.3041   1.4429   1.4830   1.5450   1.8347   1.9414
     2.0946   2.4669   2.5009   2.8939   4.7349   4.8244   4.9410   5.1071
     5.2263   5.3410   5.4792   5.5440   5.7550   5.7824   5.9555   5.9942
     6.2341   6.3092   6.5653   7.0380   7.0672  11.9636  12.1288  12.1567
    12.5885  12.7932  12.8511  13.0552

          k = 0.0625 0.2526 0.1564 ( 13960 PWs)   bands (ev):

    -7.8797  -6.5318  -6.2946  -6.1013  -6.0179  -5.5611  -5.4907  -5.4698
     1.2477   1.3302   1.4240   1.6397   1.7006   1.8255   2.0089   2.1297
     2.2211   2.9441   2.9911   3.1347   3.6790   3.7986   3.9701   4.5155
     4.7221   4.9934   5.4076   5.5650   5.6909   5.7593   5.8110   6.0483
     6.1050   6.3249   6.4830   6.9731   7.1406  11.7621  12.6528  12.7563
    12.8963  13.1114  13.4977  13.6628

          k = 0.0625 0.2526 0.4693 ( 13947 PWs)   bands (ev):

    -7.4466  -6.7058  -6.2431  -6.0575  -5.9103  -5.8364  -5.6977  -5.6284
     1.1256   1.2558   1.3783   1.4658   1.5137   1.6368   1.9189   2.1349
     2.3391   2.4992   2.6381   2.9442   4.3850   4.5514   4.6752   4.9448
     5.1053   5.2772   5.3944   5.4554   5.6112   5.8026   5.9178   5.9998
     6.0689   6.2362   6.3885   6.9641   6.9993  12.2796  12.3851  12.5177
    12.8331  12.9864  13.2238  13.4581

          k = 0.0625 0.3969 0.1564 ( 13980 PWs)   bands (ev):

    -7.6774  -6.8680  -6.3544  -6.0915  -5.9152  -5.5954  -5.4795  -5.4671
     1.3606   1.4427   1.5236   1.6769   1.7484   1.9778   2.1457   2.3525
     2.4173   2.9878   3.0218   3.1896   3.6821   3.7881   3.9751   4.3231
     4.4230   4.8347   5.1142   5.1626   5.4331   5.6018   5.8226   5.9069
     6.0478   6.3275   6.3843   6.8933   7.0690  12.3169  12.7582  12.9595
    13.1191  13.5676  14.0488  14.2826

          k = 0.0625 0.3969 0.4693 ( 13964 PWs)   bands (ev):

    -7.2594  -6.6021  -6.4741  -6.1137  -5.9997  -5.8963  -5.7088  -5.6206
     1.2727   1.3819   1.4558   1.4830   1.5372   1.8458   2.1712   2.3557
     2.5492   2.6072   2.8998   3.0536   3.9481   4.1759   4.3526   4.6702
     4.8095   5.1039   5.2773   5.3937   5.4749   5.7531   5.8688   5.9495
     6.0463   6.1706   6.2128   6.8606   6.9864  12.6211  12.8811  13.0270
    13.1138  13.2808  13.6425  13.9037

          k = 0.0625 0.5413 0.1564 ( 13963 PWs)   bands (ev):

    -7.4244  -7.1881  -6.3829  -6.0940  -5.7963  -5.6813  -5.4765  -5.4622
     1.4210   1.5209   1.5711   1.7004   1.7282   2.1379   2.2890   2.4898
     2.6416   2.7546   2.8881   3.5483   3.7096   3.8722   3.9514   4.2260
     4.3351   4.4887   4.7132   5.1023   5.3553   5.4882   5.6308   5.7933
     6.0240   6.3989   6.5232   6.8157   7.0248  12.6882  12.8420  12.9682
    13.2458  14.0944  14.3817  14.5717

          k = 0.0625 0.5413 0.4693 ( 13971 PWs)   bands (ev):

    -7.0276  -6.8220  -6.3561  -6.2278  -6.0947  -5.8947  -5.7172  -5.6173
     1.3890   1.3995   1.4565   1.5130   1.5627   2.0686   2.3253   2.4735
     2.6714   2.8057   2.8777   3.4131   3.7100   3.7660   4.1710   4.4049
     4.7311   4.8789   4.9892   5.3715   5.5920   5.7361   5.8129   5.9009
     6.0549   6.0968   6.2084   6.7837   6.9931  12.8764  13.0959  13.4463
    13.4795  13.5909  13.7785  14.0239

          k = 0.0625-0.4691 0.1564 ( 13984 PWs)   bands (ev):

    -7.5508  -7.0384  -6.3739  -6.0958  -5.8487  -5.6304  -5.4836  -5.4641
     1.4134   1.5244   1.5340   1.6462   1.7194   2.1119   2.2654   2.3960
     2.5857   2.8610   2.9352   3.2644   3.7833   3.9014   4.0313   4.2278
     4.3495   4.4667   4.9481   5.1797   5.3386   5.5331   5.6925   5.8445
     6.0230   6.3803   6.4797   6.8292   7.0479  12.5300  12.8044  12.9603
    13.1698  14.0978  14.2739  14.4458

          k = 0.0625-0.4691 0.4693 ( 13965 PWs)   bands (ev):

    -7.1440  -6.6846  -6.4614  -6.1408  -6.0688  -5.8896  -5.7183  -5.6210
     1.3779   1.4073   1.4280   1.4854   1.5374   2.0294   2.2309   2.4157
     2.6936   2.7089   2.8385   3.2910   3.7887   3.9490   4.2446   4.5001
     4.6898   4.8882   5.2277   5.3848   5.5662   5.7069   5.8451   5.9656
     6.0374   6.1034   6.1931   6.8107   6.9890  12.7269  13.0430  13.2397
    13.3004  13.6461  13.7439  13.9260

          k = 0.0625-0.3248 0.1564 ( 13973 PWs)   bands (ev):

    -7.7883  -6.6944  -6.3295  -6.1015  -5.9633  -5.5588  -5.4924  -5.4719
     1.3037   1.4405   1.4652   1.5792   1.7179   1.9612   2.0939   2.1653
     2.3923   2.9325   2.9784   3.2309   3.5635   3.8749   3.9785   4.3840
     4.5337   5.0812   5.1364   5.3479   5.5965   5.6631   5.7937   6.0243
     6.1518   6.3042   6.3607   6.9070   7.1158  12.0301  12.7199  12.7969
    12.9599  13.5739  13.7531  13.9674

          k = 0.0625-0.3248 0.4693 ( 13951 PWs)   bands (ev):

    -7.3621  -6.6354  -6.3869  -6.0802  -5.9386  -5.8587  -5.7115  -5.6304
     1.2534   1.3002   1.3631   1.4795   1.5152   1.8145   2.0122   2.1682
     2.5268   2.6171   2.6582   3.0087   4.1638   4.3828   4.5450   4.7521
     4.8967   5.2177   5.3469   5.4687   5.5848   5.7293   5.8709   6.0396
     6.0854   6.1741   6.2506   6.9118   6.9819  12.3563  12.6872  12.7521
    12.9942  13.2594  13.4145  13.6276

          k = 0.0625-0.1804 0.1564 ( 13963 PWs)   bands (ev):

    -7.9496  -6.3867  -6.2586  -6.1259  -6.0404  -5.5576  -5.4997  -5.4792
     1.1913   1.3064   1.3523   1.5584   1.6974   1.7568   2.0039   2.0629
     2.1524   2.8750   2.9174   3.1080   3.6387   3.9057   4.0910   4.6412
     4.8096   4.9636   5.4814   5.6034   5.7460   5.9061   5.9593   6.0183
     6.1557   6.3305   6.6574   7.0186   7.1791  11.5099  12.5606  12.6363
    12.7361  13.0941  13.2272  13.3498

          k = 0.0625-0.1804 0.4693 ( 13933 PWs)   bands (ev):

    -7.5117  -6.7572  -6.1366  -6.0257  -5.9207  -5.7642  -5.6981  -5.6384
     1.0848   1.1402   1.3308   1.4480   1.4933   1.6159   1.8584   1.9740
     2.2503   2.4844   2.5309   2.9181   4.6064   4.6838   4.8646   4.9665
     5.2227   5.3345   5.4294   5.5233   5.6468   5.7844   5.9555   6.0380
     6.1389   6.2702   6.4976   6.9968   7.0314  12.0602  12.2636  12.3114
    12.6997  12.9183  12.9943  13.2033

          k = 0.0625-0.0361 0.1564 ( 13976 PWs)   bands (ev):

    -8.0206  -6.2267  -6.1929  -6.1524  -6.0699  -5.5651  -5.5084  -5.5034
     1.1527   1.2275   1.2631   1.5073   1.6627   1.6894   2.0030   2.0245
     2.0678   2.8283   2.8896   2.9020   3.9003   3.9030   4.1224   4.8351
     4.9243   4.9470   5.5176   5.5419   5.6618   6.0793   6.0980   6.1405
     6.3192   6.3751   6.7581   7.1776   7.2076  11.2139  12.4792  12.5281
    12.5567  12.8888  12.9598  13.0411

          k = 0.0625-0.0361 0.4693 ( 13915 PWs)   bands (ev):

    -7.5779  -6.8119  -6.0098  -5.9846  -5.9317  -5.7116  -5.6904  -5.6475
     1.0050   1.0374   1.2810   1.4508   1.4763   1.5063   1.8402   1.9366
     1.9863   2.4622   2.4825   2.8814   4.7754   4.9617   4.9631   5.2078
     5.2265   5.2956   5.4327   5.6437   5.7827   5.8390   5.9376   5.9442
     6.2982   6.3293   6.5904   7.0697   7.0868  11.9054  12.0640  12.0757
    12.5281  12.7346  12.7694  12.9733

          k = 0.1875 0.3248 0.1564 ( 13981 PWs)   bands (ev):

    -7.7210  -6.7075  -6.5431  -5.9808  -5.9219  -5.5734  -5.5083  -5.4769
     1.3434   1.4497   1.4996   1.6380   1.7302   1.9858   2.0992   2.2875
     2.4520   2.9698   3.0469   3.2514   3.5675   3.6797   3.8459   4.5100
     4.7932   4.8875   5.0087   5.0999   5.4648   5.5404   5.8768   6.0654
     6.1622   6.2363   6.3361   6.9039   7.0236  12.2226  12.6604  13.0105
    13.1556  13.5475  13.8675  14.2766

          k = 0.1875 0.3248 0.4693 ( 13967 PWs)   bands (ev):

    -7.2998  -6.5919  -6.3916  -6.2476  -5.9228  -5.8379  -5.7538  -5.6065
     1.2736   1.3596   1.4055   1.4716   1.5696   1.8546   2.0342   2.3209
     2.5532   2.6782   2.7697   3.0152   3.8680   4.2424   4.6214   4.6987
     4.8422   5.1634   5.3467   5.4214   5.5473   5.7052   5.7925   5.9379
     6.0953   6.1359   6.2546   6.8095   7.0029  12.5928  12.7356  12.9332
    13.1014  13.3334  13.4972  13.8816

          k = 0.1875 0.4691 0.1564 ( 13983 PWs)   bands (ev):

    -7.4877  -6.9973  -6.6630  -5.8841  -5.8175  -5.6293  -5.5280  -5.4980
     1.4173   1.5288   1.5656   1.6945   1.7502   2.0935   2.2670   2.4221
     2.6603   2.9457   3.1206   3.2991   3.3718   3.7314   4.0394   4.3133
     4.6009   4.6351   4.8061   5.0248   5.1432   5.4176   5.7135   5.9041
     6.1626   6.2682   6.4695   6.8320   6.9030  12.5293  12.8128  13.2219
    13.5266  13.8928  14.2164  14.8120

          k = 0.1875 0.4691 0.4693 ( 13969 PWs)   bands (ev):

    -7.0857  -6.6570  -6.4125  -6.3464  -6.0708  -5.8651  -5.7287  -5.5899
     1.3717   1.4024   1.4677   1.5278   1.5966   2.0614   2.2420   2.5540
     2.6524   2.8490   2.9274   3.1747   3.4879   3.8165   4.2832   4.5949
     4.8185   5.0325   5.1413   5.3071   5.4796   5.6590   5.7874   5.8463
     6.0583   6.1409   6.1776   6.6370   7.0193  12.9516  13.1805  13.2742
    13.4242  13.6148  13.7595  14.2221

          k = 0.1875 0.6134 0.1564 ( 13972 PWs)   bands (ev):

    -7.3630  -7.1402  -6.6825  -5.8656  -5.7667  -5.6619  -5.5426  -5.4991
     1.4356   1.5563   1.5769   1.6957   1.7449   2.1829   2.2986   2.4697
     2.6632   2.8469   3.1203   3.3154   3.5934   3.7395   3.9995   4.1678
     4.4535   4.6723   4.7665   4.9149   5.3016   5.3462   5.5808   5.8426
     6.1934   6.2740   6.5344   6.7838   6.8837  12.5251  12.9888  13.1817
    13.6411  14.0113  14.5319  14.6958

          k = 0.1875 0.6134 0.4693 ( 13959 PWs)   bands (ev):

    -6.9732  -6.7745  -6.4063  -6.2987  -6.1483  -5.8723  -5.7195  -5.5875
     1.3752   1.4491   1.4661   1.5426   1.5905   2.1996   2.2391   2.6108
     2.7305   2.7917   2.9605   3.3384   3.4256   3.6293   4.1650   4.6001
     4.7936   4.9282   5.0912   5.3525   5.4718   5.5796   5.8201   5.8696
     6.0412   6.1293   6.1533   6.5922   7.0228  13.0408  13.2284  13.4412
    13.5748  13.6702  13.9329  14.0671

          k = 0.1875-0.3969 0.1564 ( 13980 PWs)   bands (ev):

    -7.6120  -6.8420  -6.6213  -5.9293  -5.8672  -5.5891  -5.5262  -5.4866
     1.3911   1.5086   1.5284   1.6531   1.7328   2.0568   2.1704   2.3808
     2.6004   2.9653   3.0616   3.2383   3.4518   3.7562   3.8606   4.5553
     4.6612   4.7525   4.8775   5.0048   5.2797   5.4578   5.7984   6.0285
     6.1812   6.2019   6.4036   6.8588   6.9630  12.4467  12.6664  13.1517
    13.3087  13.8003  14.0926  14.5721

          k = 0.1875-0.3969 0.4693 ( 13967 PWs)   bands (ev):

    -7.1997  -6.5278  -6.5006  -6.3029  -5.9886  -5.8469  -5.7475  -5.5973
     1.3493   1.3753   1.4520   1.4770   1.5839   1.9798   2.1235   2.4378
     2.6280   2.7908   2.8339   3.0990   3.6372   4.0236   4.4545   4.6499
     4.7796   5.1137   5.2671   5.3452   5.4923   5.7426   5.7556   5.8768
     6.0810   6.1224   6.2041   6.7169   7.0117  12.7723  12.9544  13.1412
    13.2462  13.5281  13.6439  14.0826

          k = 0.1875-0.2526 0.1564 ( 13967 PWs)   bands (ev):

    -7.8109  -6.6106  -6.4229  -6.0382  -5.9748  -5.5653  -5.4963  -5.4694
     1.2918   1.3863   1.4640   1.6337   1.7233   1.9056   2.0457   2.1985
     2.3100   2.9630   3.0173   3.2285   3.5798   3.7859   3.8807   4.4721
     4.7686   4.9334   5.2352   5.3531   5.5820   5.6853   5.8545   6.0479
     6.1542   6.2628   6.3861   6.9408   7.0880  11.9784  12.6694  12.8653
    13.0153  13.3026  13.6653  13.9538

          k = 0.1875-0.2526 0.4693 ( 13955 PWs)   bands (ev):

    -7.3828  -6.6555  -6.3079  -6.1562  -5.8816  -5.8570  -5.7280  -5.6178
     1.1927   1.3195   1.3807   1.4676   1.5453   1.7346   1.9655   2.2158
     2.4687   2.5480   2.7044   2.9721   4.1273   4.4275   4.6670   4.8346
     4.9484   5.2139   5.3861   5.4648   5.6151   5.7060   5.8434   5.9928
     6.0856   6.1806   6.3180   6.8989   6.9958  12.4233  12.5380  12.7142
    12.9616  13.1395  13.3562  13.6572

          k = 0.1875-0.1083 0.1564 ( 13963 PWs)   bands (ev):

    -7.9262  -6.4562  -6.2142  -6.1473  -6.0441  -5.5603  -5.4919  -5.4748
     1.2162   1.2920   1.3877   1.6445   1.6592   1.7767   1.9898   2.0867
     2.1746   2.9180   2.9689   3.0622   3.7469   3.8243   4.0018   4.6189
     4.7314   5.0018   5.5035   5.6054   5.7333   5.8450   5.8650   6.0387
     6.1075   6.3512   6.5822   7.0058   7.1682  11.5997  12.6095  12.6926
    12.8088  13.0030  13.3530  13.4617

          k = 0.1875-0.1083 0.4693 ( 13937 PWs)   bands (ev):

    -7.4899  -6.7403  -6.1833  -5.9990  -5.9404  -5.8060  -5.6868  -5.6328
     1.0818   1.1980   1.3674   1.4641   1.4927   1.5821   1.8789   2.0816
     2.2374   2.4813   2.5848   2.9252   4.5844   4.6159   4.7134   5.0186
     5.2121   5.3211   5.4094   5.4547   5.6090   5.8709   5.9272   6.0438
     6.0532   6.2702   6.4553   6.9859   7.0250  12.1731  12.2793  12.3748
    12.7407  12.8930  13.1027  13.3127

          k = 0.3125 0.5413 0.1564 ( 13966 PWs)   bands (ev):

    -7.2536  -7.1185  -6.8930  -5.7315  -5.7091  -5.6662  -5.6209  -5.5432
     1.4437   1.5795   1.5833   1.7101   1.7684   2.2396   2.3010   2.4860
     2.6241   2.9811   3.0420   3.4501   3.5710   3.7792   3.9311   4.0462
     4.2493   4.6975   4.9226   5.0668   5.1698   5.2508   5.4615   5.8955
     6.1383   6.3677   6.5180   6.7123   6.8107  12.4413  13.2291  13.4158
    13.6514  14.1324  14.4118  14.7167

          k = 0.3125 0.5413 0.4693 ( 13993 PWs)   bands (ev):

    -6.8753  -6.7520  -6.5690  -6.2402  -6.1555  -5.9651  -5.6452  -5.5990
     1.3734   1.4664   1.4730   1.5880   1.6120   2.2425   2.3475   2.6376
     2.7237   2.8029   3.0591   3.2727   3.3711   3.4679   4.0367   4.7958
     4.8522   4.9971   5.1159   5.2109   5.3373   5.5593   5.7621   5.9357
     6.0470   6.0711   6.1573   6.4447   7.0335  13.1951  13.3883  13.4274
    13.6979  13.7968  13.9615  14.0847

          k = 0.3125 0.6856 0.1564 ( 13964 PWs)   bands (ev):

    -7.3709  -7.0510  -6.8035  -5.7979  -5.7597  -5.6476  -5.5708  -5.5238
     1.4351   1.5622   1.5776   1.7045   1.7587   2.1654   2.3062   2.4527
     2.6696   2.9658   3.1419   3.2655   3.4564   3.8142   3.9750   4.1460
     4.4024   4.7449   4.8603   4.9828   5.1252   5.3080   5.6007   5.9091
     6.1402   6.3236   6.5026   6.7703   6.8371  12.4766  13.0288  13.3608
    13.6663  13.9827  14.3451  14.9062

          k = 0.3125 0.6856 0.4693 ( 13978 PWs)   bands (ev):

    -6.9800  -6.6971  -6.4931  -6.3116  -6.1087  -5.9241  -5.6813  -5.5896
     1.3729   1.4469   1.4706   1.5585   1.6109   2.1712   2.2919   2.6328
     2.7209   2.7855   3.0781   3.1610   3.3903   3.6285   4.1288   4.7184
     4.8380   5.0150   5.0960   5.2365   5.4674   5.5678   5.7467   5.8985
     6.0519   6.1107   6.1631   6.5194   7.0289  13.1074  13.3061  13.3691
    13.5846  13.7414  13.8517  14.1935

          k = 0.3125-0.3248 0.1564 ( 13979 PWs)   bands (ev):

    -7.5913  -6.9384  -6.5073  -5.9840  -5.8702  -5.6121  -5.4978  -5.4769
     1.3912   1.4859   1.5471   1.6837   1.7479   2.0325   2.2080   2.3911
     2.5458   2.9612   3.0537   3.2537   3.5328   3.7189   4.0239   4.3936
     4.5053   4.7025   4.8946   5.1056   5.2898   5.5178   5.7830   5.8968
     6.1097   6.2962   6.4232   6.8674   6.9953  12.4899  12.7106  13.0786
    13.3044  13.7582  14.1126  14.5500

          k = 0.3125-0.3248 0.4693 ( 13968 PWs)   bands (ev):

    -7.1804  -6.6201  -6.4557  -6.2342  -6.0345  -5.8438  -5.7474  -5.6013
     1.3329   1.3816   1.4643   1.4994   1.5718   1.9471   2.2040   2.4547
     2.5920   2.7435   2.9048   3.1265   3.6931   4.0104   4.4466   4.4875
     4.8050   5.0848   5.1853   5.3719   5.4644   5.7567   5.8016   5.8780
     6.0573   6.1543   6.1979   6.7599   7.0048  12.7758  13.0308  13.1695
    13.2468  13.4422  13.6997  14.0779

          k = 0.3125-0.1804 0.1564 ( 13975 PWs)   bands (ev):

    -7.7435  -6.7860  -6.2419  -6.1773  -5.9503  -5.5805  -5.4717  -5.4699
     1.3310   1.4072   1.4988   1.6730   1.7450   1.9281   2.0930   2.3040
     2.3323   2.9974   3.0248   3.1494   3.7448   3.7966   3.9427   4.3271
     4.4253   5.0100   5.1236   5.3462   5.4987   5.6701   5.7650   5.9954
     6.0655   6.2897   6.3809   6.9145   7.1057  12.1566  12.7749  12.8809
    13.0271  13.4090  13.9532  14.0652

          k = 0.3125-0.1804 0.4693 ( 13955 PWs)   bands (ev):

    -7.3204  -6.6196  -6.4355  -6.0166  -6.0012  -5.9226  -5.6850  -5.6338
     1.2250   1.3692   1.4393   1.4840   1.5085   1.7701   2.1181   2.2848
     2.4938   2.5451   2.8517   3.0004   4.1867   4.2288   4.3668   4.8206
     4.8386   5.1446   5.3593   5.4139   5.4674   5.7583   5.9351   5.9462
     6.0480   6.2121   6.2170   6.9195   6.9724  12.5128  12.7408  12.8711
    13.0318  13.1713  13.5584  13.7744

          k = 0.4375 0.7578 0.1564 ( 13963 PWs)   bands (ev):

    -7.3704  -7.2025  -6.5346  -5.9711  -5.7740  -5.6830  -5.5029  -5.4763
     1.4304   1.5404   1.5743   1.6971   1.7340   2.1709   2.2939   2.4869
     2.6752   2.7565   2.9818   3.5013   3.6724   3.7383   3.9306   4.2844
     4.4458   4.5587   4.6355   5.0140   5.3505   5.4106   5.6395   5.7537
     6.1336   6.3293   6.5426   6.7998   6.9592  12.6114  12.9340  13.0151
    13.4577  14.1108  14.4551  14.6583

          k = 0.4375 0.7578 0.4693 ( 13972 PWs)   bands (ev):

    -6.9790  -6.8325  -6.3325  -6.2818  -6.1576  -5.8372  -5.7541  -5.5958
     1.3819   1.4319   1.4566   1.5303   1.5713   2.1375   2.2750   2.5476
     2.7163   2.8255   2.8844   3.4304   3.5329   3.6691   4.2449   4.3997
     4.7944   4.8615   5.0436   5.3648   5.5295   5.6943   5.7967   5.8809
     6.0454   6.1172   6.1832   6.6933   7.0105  12.9598  13.1505  13.4928
    13.5478  13.6045  13.8696  14.0252

          k = 0.4375-0.2526 0.1564 ( 13971 PWs)   bands (ev):

    -7.4928  -7.1253  -6.2601  -6.2026  -5.8259  -5.6623  -5.4672  -5.4591
     1.4096   1.5023   1.5663   1.6968   1.7347   2.0959   2.2817   2.4599
     2.5586   2.8385   2.8864   3.4187   3.8051   3.9270   4.0339   4.1464
     4.2715   4.4692   4.8422   5.1496   5.3516   5.5784   5.6076   5.8770
     5.9314   6.4261   6.4846   6.8340   7.0540  12.6400  12.8383  12.9822
    13.1225  13.9604  14.4219  14.4431

          k = 0.4375-0.2526 0.4693 ( 13970 PWs)   bands (ev):

    -7.0900  -6.7688  -6.3994  -6.1780  -6.0275  -5.9564  -5.6856  -5.6370
     1.3635   1.3974   1.4580   1.5077   1.5542   2.0118   2.3470   2.4156
     2.6436   2.7382   2.9065   3.3306   3.8653   3.8833   4.0551   4.5216
     4.6773   4.9463   4.9812   5.3767   5.5992   5.7175   5.8767   5.9074
     6.0561   6.0904   6.2172   6.8298   6.9816  12.8049  13.0839  13.3500
    13.3863  13.5135  13.7822  13.9820

          k =-0.0625-0.2526 0.1564 ( 13960 PWs)   bands (ev):

    -7.8797  -6.5300  -6.2967  -6.1108  -6.0078  -5.5532  -5.4947  -5.4741
     1.2402   1.3730   1.4118   1.5681   1.7115   1.8554   2.0369   2.1019
     2.2468   2.9126   2.9504   3.2482   3.4951   3.8938   4.0452   4.5008
     4.6760   5.0149   5.4164   5.4930   5.6838   5.7717   5.8666   6.0355
     6.1154   6.3211   6.4979   6.9520   7.1503  11.7570  12.6437  12.7079
    12.8474  13.3195  13.4612  13.6375

          k =-0.0625-0.2526 0.4693 ( 13947 PWs)   bands (ev):

    -7.4467  -6.7039  -6.2511  -6.0542  -5.9200  -5.8095  -5.7054  -5.6351
     1.1636   1.2185   1.3494   1.4653   1.5048   1.7088   1.9183   2.0503
     2.4189   2.5282   2.5726   2.9537   4.3910   4.5546   4.7199   4.8518
     5.0970   5.2898   5.4268   5.4529   5.6033   5.7954   5.8943   6.0482
     6.0952   6.2197   6.3806   6.9604   6.9948  12.1923  12.4569  12.5178
    12.8432  13.0808  13.1895  13.4039

          k =-0.0625-0.3969 0.1564 ( 13980 PWs)   bands (ev):

    -7.6774  -6.8673  -6.3557  -6.0972  -5.9086  -5.5853  -5.4892  -5.4679
     1.3683   1.4921   1.5060   1.6052   1.7201   2.0471   2.1737   2.2676
     2.5412   2.9167   2.9698   3.1770   3.7650   3.8191   3.9657   4.2873
     4.4317   4.7769   5.1412   5.1714   5.4403   5.6011   5.7610   5.9588
     6.0458   6.3432   6.3962   6.8672   7.0797  12.2991  12.7683  12.8957
    13.0711  13.8394  14.0538  14.2664

          k =-0.0625-0.3969 0.4693 ( 13964 PWs)   bands (ev):

    -7.2598  -6.5579  -6.5299  -6.1047  -5.9989  -5.8823  -5.7159  -5.6253
     1.3383   1.3664   1.3829   1.4853   1.5242   1.9264   2.1230   2.3065
     2.6043   2.6678   2.7850   3.1163   3.9547   4.1740   4.3764   4.6456
     4.7319   5.0462   5.3364   5.4561   5.5147   5.7013   5.8754   6.0199
     6.0442   6.1336   6.1903   6.8574   6.9839  12.5415  12.9125  12.9960
    13.1377  13.4509  13.6208  13.8248

          k =-0.0625-0.5413 0.1564 ( 13963 PWs)   bands (ev):

    -7.4245  -7.1880  -6.3831  -6.0951  -5.7952  -5.6790  -5.4788  -5.4620
     1.4278   1.5349   1.5584   1.6869   1.7172   2.1604   2.2922   2.5161
     2.6119   2.7601   2.8715   3.5073   3.7825   3.8444   4.0113   4.2114
     4.2770   4.4583   4.7591   5.1050   5.3756   5.4609   5.6212   5.8009
     6.0265   6.3986   6.5343   6.8050   7.0277  12.6726  12.8497  12.9626
    13.2339  14.2141  14.4159  14.5092

          k =-0.0625-0.5413 0.4693 ( 13971 PWs)   bands (ev):

    -7.0288  -6.8180  -6.3712  -6.2133  -6.0960  -5.8928  -5.7188  -5.6182
     1.3873   1.4264   1.4471   1.4973   1.5551   2.0906   2.3084   2.4632
     2.7043   2.8036   2.8456   3.4662   3.6753   3.7660   4.1720   4.4053
     4.7335   4.7851   5.0750   5.3746   5.6085   5.7181   5.8062   5.9220
     6.0486   6.0939   6.2022   6.7834   6.9926  12.8687  13.0696  13.4390
    13.4583  13.6903  13.8417  13.9144

          k =-0.0625 0.4691 0.1564 ( 13984 PWs)   bands (ev):

    -7.5508  -7.0388  -6.3731  -6.0925  -5.8525  -5.6367  -5.4769  -5.4644
     1.3990   1.4893   1.5581   1.6907   1.7448   2.0573   2.2531   2.4137
     2.5312   2.8974   2.9782   3.3071   3.6898   3.8259   4.1271   4.2230
     4.3218   4.5574   4.9077   5.1616   5.3234   5.5634   5.7364   5.8087
     6.0173   6.3793   6.4570   6.8523   7.0402  12.5556  12.7911  12.9914
    13.2032  13.8460  14.2543  14.4961

          k =-0.0625 0.4691 0.4693 ( 13965 PWs)   bands (ev):

    -7.1431  -6.6973  -6.4354  -6.1577  -6.0673  -5.8957  -5.7137  -5.6182
     1.3415   1.3921   1.4607   1.5130   1.5506   1.9705   2.2776   2.4404
     2.6132   2.7149   2.9147   3.2264   3.7928   3.9606   4.2349   4.5035
     4.7525   4.9949   5.0811   5.3730   5.5343   5.7449   5.8559   5.9075
     6.0485   6.1216   6.2095   6.8121   6.9905  12.7687  13.0880  13.2349
    13.2984  13.4546  13.7488  14.0180

          k =-0.0625 0.3248 0.1564 ( 13973 PWs)   bands (ev):

    -7.7883  -6.6956  -6.3277  -6.0932  -5.9725  -5.5701  -5.4841  -5.4683
     1.3069   1.3865   1.4777   1.6618   1.7335   1.9008   2.0594   2.2413
     2.3074   2.9905   3.0209   3.1700   3.6806   3.7932   3.8903   4.4033
     4.5756   5.0569   5.1603   5.3866   5.5914   5.6350   5.8100   6.0113
     6.1434   6.2933   6.3513   6.9321   7.1045  12.0404  12.7143  12.8729
    13.0158  13.3103  13.7799  13.9850

          k =-0.0625 0.3248 0.4693 ( 13951 PWs)   bands (ev):

    -7.3619  -6.6428  -6.3703  -6.0854  -5.9251  -5.8910  -5.7030  -5.6242
     1.1972   1.3444   1.4101   1.4713   1.5286   1.7286   2.0365   2.2473
     2.4578   2.5364   2.7766   2.9772   4.1556   4.3780   4.5102   4.8382
     4.9190   5.2352   5.3523   5.4222   5.5297   5.7764   5.8640   5.9832
     6.0606   6.2050   6.2747   6.9169   6.9851  12.4583  12.6100  12.7641
    12.9801  13.1245  13.4495  13.7000

          k =-0.0625 0.1804 0.1564 ( 13963 PWs)   bands (ev):

    -7.9496  -6.3887  -6.2569  -6.1192  -6.0470  -5.5609  -5.4982  -5.4774
     1.1966   1.2832   1.3626   1.5920   1.6770   1.7565   1.9897   2.0665
     2.1528   2.8877   2.9402   3.0597   3.7235   3.8558   4.0536   4.6480
     4.8399   4.9473   5.4820   5.6193   5.7548   5.8947   5.9307   6.0323
     6.1550   6.3324   6.6497   7.0306   7.1732  11.5116  12.5758  12.6483
    12.7553  12.9962  13.2478  13.3693

          k =-0.0625 0.1804 0.4693 ( 13933 PWs)   bands (ev):

    -7.5117  -6.7576  -6.1333  -6.0278  -5.9171  -5.7777  -5.6938  -5.6338
     1.0674   1.1576   1.3447   1.4523   1.4944   1.5818   1.8484   2.0299
     2.2100   2.4774   2.5488   2.9160   4.6023   4.6886   4.8224   5.0327
     5.2326   5.3088   5.4086   5.5278   5.6608   5.7884   5.9766   6.0157
     6.1195   6.2766   6.4972   6.9966   7.0360  12.0977  12.2322  12.3097
    12.6968  12.8721  13.0134  13.2289

          k =-0.0625 0.0361 0.1564 ( 13976 PWs)   bands (ev):

    -8.0206  -6.2250  -6.1921  -6.1570  -6.0677  -5.5644  -5.5095  -5.5030
     1.1507   1.2391   1.2542   1.5037   1.6715   1.6827   2.0081   2.0240
     2.0645   2.8255   2.8742   2.9213   3.8605   3.9363   4.1308   4.8341
     4.9166   4.9513   5.5254   5.5313   5.6654   6.0851   6.0895   6.1428
     6.3218   6.3727   6.7594   7.1723   7.2120  11.2137  12.4718  12.5328
    12.5533  12.9296  12.9325  13.0350

          k =-0.0625 0.0361 0.4693 ( 13915 PWs)   bands (ev):

    -7.5779  -6.8119  -6.0112  -5.9825  -5.9331  -5.7065  -5.6929  -5.6494
     1.0110   1.0315   1.2789   1.4469   1.4778   1.5128   1.8650   1.8855
     2.0115   2.4639   2.4799   2.8816   4.7763   4.9319   5.0085   5.1810
     5.1992   5.3499   5.4164   5.6429   5.7976   5.8221   5.9169   5.9663
     6.3026   6.3261   6.5909   7.0735   7.0823  11.8999  12.0720  12.0728
    12.5281  12.7526  12.7567  12.9686

          k =-0.1875-0.4691 0.1564 ( 13983 PWs)   bands (ev):

    -7.4877  -6.9970  -6.6634  -5.8885  -5.8137  -5.6207  -5.5398  -5.4941
     1.4230   1.5451   1.5562   1.6758   1.7368   2.1251   2.2530   2.4467
     2.6518   2.9476   3.0750   3.2707   3.4175   3.8134   3.9586   4.3284
     4.5524   4.6922   4.7803   5.0100   5.1952   5.4039   5.6778   5.9241
     6.1942   6.2355   6.4851   6.8121   6.9147  12.5263  12.8030  13.2198
    13.4802  13.9913  14.3059  14.7277

          k =-0.1875-0.4691 0.4693 ( 13969 PWs)   bands (ev):

    -7.0863  -6.6474  -6.4467  -6.3208  -6.0707  -5.8632  -5.7302  -5.5909
     1.3699   1.4222   1.4716   1.5028   1.5907   2.1018   2.2042   2.5470
     2.7052   2.7830   2.9215   3.2412   3.4653   3.8058   4.2818   4.6194
     4.7593   5.0265   5.1624   5.3355   5.4677   5.6593   5.7957   5.8692
     6.0535   6.1235   6.1709   6.6387   7.0189  12.9370  13.1382  13.3009
    13.4221  13.6643  13.7876  14.1565

          k =-0.1875-0.6134 0.1564 ( 13972 PWs)   bands (ev):

    -7.3629  -7.1403  -6.6823  -5.8640  -5.7673  -5.6662  -5.5377  -5.5008
     1.4328   1.5503   1.5803   1.7026   1.7519   2.1661   2.3085   2.4490
     2.6879   2.8371   3.1343   3.3263   3.5543   3.7550   3.9694   4.2176
     4.4549   4.6382   4.7799   4.9262   5.2506   5.3855   5.5921   5.8370
     6.1820   6.2855   6.5261   6.7944   6.8782  12.5259  13.0042  13.1675
    13.6831  13.9491  14.4246  14.8591

          k =-0.1875-0.6134 0.4693 ( 13959 PWs)   bands (ev):

    -6.9723  -6.7777  -6.3925  -6.3118  -6.1471  -5.8728  -5.7191  -5.5871
     1.3764   1.4399   1.4637   1.5560   1.5907   2.1682   2.2692   2.6127
     2.7060   2.8205   2.9705   3.2742   3.4589   3.6434   4.1635   4.5917
     4.8266   4.9206   5.0832   5.3420   5.4621   5.5967   5.8109   5.8578
     6.0469   6.1412   6.1521   6.5911   7.0229  13.0394  13.2614  13.4270
    13.5736  13.6686  13.8594  14.1362

          k =-0.1875 0.3969 0.1564 ( 13980 PWs)   bands (ev):

    -7.6120  -6.8424  -6.6208  -5.9251  -5.8714  -5.5957  -5.5173  -5.4890
     1.3879   1.4936   1.5361   1.6713   1.7415   2.0328   2.1754   2.3849
     2.5747   2.9939   3.0769   3.2546   3.4274   3.6919   3.9140   4.5351
     4.6615   4.7963   4.8754   4.9931   5.2582   5.4600   5.8412   5.9900
     6.1563   6.2373   6.3916   6.8720   6.9549  12.4517  12.6665  13.1768
    13.3225  13.7230  14.0648  14.5815

          k =-0.1875 0.3969 0.4693 ( 13967 PWs)   bands (ev):

    -7.1995  -6.5573  -6.4594  -6.3146  -5.9888  -5.8506  -5.7448  -5.5963
     1.3369   1.3742   1.4661   1.4790   1.5905   1.9488   2.1494   2.4443
     2.6046   2.7849   2.8739   3.0702   3.6393   4.0261   4.4584   4.6253
     4.8295   5.1185   5.2428   5.3308   5.5217   5.6818   5.7924   5.8613
     6.0758   6.1376   6.2114   6.7167   7.0122  12.8052  12.9378  13.1510
    13.2377  13.4714  13.6610  14.1053

          k =-0.1875 0.2526 0.1564 ( 13967 PWs)   bands (ev):

    -7.8109  -6.6096  -6.4242  -6.0436  -5.9690  -5.5600  -5.5006  -5.4706
     1.2898   1.4069   1.4595   1.6007   1.7193   1.9287   2.0554   2.1758
     2.3379   2.9394   3.0051   3.2645   3.5213   3.8073   3.9196   4.4714
     4.7319   4.9627   5.2373   5.3135   5.6138   5.6890   5.8271   6.0625
     6.1750   6.2448   6.3957   6.9287   7.0942  11.9747  12.6727  12.8239
    12.9927  13.4192  13.6469  13.9487

          k =-0.1875 0.2526 0.4693 ( 13955 PWs)   bands (ev):

    -7.3829  -6.6533  -6.3159  -6.1515  -5.8941  -5.8341  -5.7349  -5.6201
     1.2123   1.3030   1.3652   1.4704   1.5359   1.7775   1.9480   2.1870
     2.4976   2.5855   2.6524   2.9821   4.1304   4.4282   4.7032   4.7873
     4.9241   5.2253   5.4035   5.4629   5.5938   5.7281   5.8414   6.0107
     6.1015   6.1624   6.3106   6.8967   6.9945  12.3682  12.5825  12.7122
    12.9668  13.2059  13.3222  13.6333

          k =-0.1875 0.1083 0.1564 ( 13963 PWs)   bands (ev):

    -7.9262  -6.4538  -6.2125  -6.1630  -6.0322  -5.5526  -5.4947  -5.4800
     1.2056   1.3471   1.3631   1.5515   1.7067   1.7911   2.0222   2.0711
     2.1826   2.8906   2.9146   3.1804   3.5498   3.9332   4.0892   4.6077
     4.6802   5.0167   5.5279   5.5413   5.6889   5.8951   5.9193   6.0214
     6.1029   6.3489   6.5989   6.9820   7.1789  11.5955  12.5767  12.6703
    12.7579  13.2239  13.3197  13.4111

          k =-0.1875 0.1083 0.4693 ( 13937 PWs)   bands (ev):

    -7.4899  -6.7391  -6.1897  -5.9944  -5.9497  -5.7804  -5.6925  -5.6429
     1.1259   1.1540   1.3350   1.4540   1.4936   1.6560   1.9265   1.9374
     2.3268   2.5007   2.5355   2.9312   4.5906   4.6146   4.7646   4.9153
     5.2083   5.3463   5.4442   5.4584   5.5869   5.8522   5.9031   6.0673
     6.1056   6.2578   6.4530   6.9846   7.0166  12.0878  12.3617  12.3658
    12.7496  12.9819  13.0803  13.2493

          k =-0.3125-0.6856 0.1564 ( 13964 PWs)   bands (ev):

    -7.3709  -7.0509  -6.8037  -5.7997  -5.7593  -5.6407  -5.5782  -5.5217
     1.4366   1.5666   1.5751   1.7005   1.7544   2.1760   2.2975   2.4683
     2.6544   2.9780   3.1228   3.2588   3.4745   3.8380   3.9558   4.1296
     4.4066   4.7830   4.8305   4.9539   5.1727   5.2896   5.5930   5.9113
     6.1472   6.3155   6.5098   6.7623   6.8416  12.4763  13.0215  13.3775
    13.6236  14.0352  14.3648  14.8596

          k =-0.3125-0.6856 0.4693 ( 13978 PWs)   bands (ev):

    -6.9804  -6.6940  -6.4991  -6.3079  -6.1088  -5.9241  -5.6814  -5.5899
     1.3723   1.4500   1.4743   1.5509   1.6105   2.1837   2.2798   2.6406
     2.7163   2.7812   3.0443   3.2230   3.3718   3.6203   4.1300   4.7155
     4.8572   4.9617   5.1238   5.2538   5.4554   5.5648   5.7600   5.9017
     6.0510   6.1023   6.1614   6.5207   7.0288  13.1108  13.2693  13.3943
    13.5852  13.7332  13.8895  14.1666

          k =-0.3125 0.3248 0.1564 ( 13979 PWs)   bands (ev):

    -7.5913  -6.9379  -6.5081  -5.9892  -5.8646  -5.6029  -5.5097  -5.4742
     1.4008   1.5189   1.5295   1.6407   1.7257   2.0866   2.2047   2.3786
     2.6044   2.9159   3.0066   3.2225   3.5909   3.8230   3.9280   4.4266
     4.5054   4.6284   4.9097   5.1226   5.3281   5.5044   5.7102   5.9476
     6.1176   6.2881   6.4438   6.8439   7.0064  12.4742  12.7132  13.0404
    13.2691  13.9538  14.1640  14.5116

          k =-0.3125 0.3248 0.4693 ( 13968 PWs)   bands (ev):

    -7.1809  -6.5965  -6.4943  -6.2189  -6.0338  -5.8337  -5.7557  -5.6036
     1.3637   1.3878   1.4367   1.4824   1.5584   2.0126   2.1498   2.4339
     2.6565   2.7401   2.8342   3.1868   3.6883   4.0029   4.4465   4.5098
     4.7158   5.0581   5.2396   5.3987   5.4855   5.7254   5.8171   5.9241
     6.0501   6.1317   6.1829   6.7595   7.0035  12.7266  13.0221  13.1598
    13.2624  13.5887  13.6701  14.0168

          k =-0.3125 0.1804 0.1564 ( 13975 PWs)   bands (ev):

    -7.7435  -6.7850  -6.2404  -6.1871  -5.9426  -5.5691  -5.4792  -5.4742
     1.3322   1.4690   1.4840   1.5800   1.7180   2.0026   2.1608   2.1671
     2.4658   2.9384   2.9499   3.1840   3.6620   3.9429   3.9994   4.2697
     4.4001   4.9680   5.1474   5.3718   5.4391   5.6948   5.7687   6.0003
     6.0619   6.3286   6.3779   6.8870   7.1169  12.1413  12.7721  12.8348
    12.9482  13.6983  13.9707  14.0255

          k =-0.3125 0.1804 0.4693 ( 13955 PWs)   bands (ev):

    -7.3207  -6.6020  -6.4632  -6.0124  -6.0050  -5.8994  -5.6903  -5.6418
     1.3059   1.3173   1.3682   1.4958   1.4976   1.8587   2.0977   2.1923
     2.5607   2.6259   2.7251   3.0537   4.1910   4.2516   4.3767   4.7207
     4.8389   5.0814   5.3706   5.5152   5.5244   5.6964   5.9008   6.0373
     6.0867   6.1608   6.1916   6.9142   6.9689  12.4135  12.8101  12.8416
    13.0495  13.3308  13.5624  13.6632

          k =-0.4375 0.2526 0.1564 ( 13971 PWs)   bands (ev):

    -7.4929  -7.1250  -6.2595  -6.2057  -5.8236  -5.6583  -5.4703  -5.4602
     1.4229   1.5332   1.5391   1.6660   1.7147   2.1371   2.2946   2.4681
     2.5701   2.8185   2.8573   3.3745   3.9608   3.9647   4.0263   4.0536
     4.2659   4.3826   4.9022   5.1512   5.3593   5.5629   5.5876   5.8824
     5.9389   6.4242   6.5073   6.8152   7.0591  12.6092  12.8670  12.9586
    13.0962  14.2047  14.3339  14.4635

          k =-0.4375 0.2526 0.4693 ( 13970 PWs)   bands (ev):

    -7.0913  -6.7614  -6.4189  -6.1643  -6.0258  -5.9538  -5.6877  -5.6395
     1.3875   1.4225   1.4317   1.4834   1.5397   2.0527   2.3150   2.3979
     2.6916   2.7553   2.8405   3.3901   3.8346   3.8979   4.0512   4.5181
     4.6776   4.7657   5.1553   5.3854   5.6219   5.6948   5.8525   5.9435
     6.0638   6.0734   6.2049   6.8286   6.9804  12.7796  13.0427  13.3479
    13.3660  13.7194  13.8226  13.8388

     the Fermi energy is     7.0976 ev

     Writing output data file aln.save

     init_run     :      0.78s CPU      0.93s WALL (       1 calls)
     electrons    :     77.54s CPU     85.68s WALL (       1 calls)

     Called by init_run:
     wfcinit      :      0.00s CPU      0.00s WALL (       1 calls)
     potinit      :      0.06s CPU      0.07s WALL (       1 calls)

     Called by electrons:
     c_bands      :     77.54s CPU     85.67s WALL (       1 calls)
     v_of_rho     :      0.02s CPU      0.03s WALL (       1 calls)
     newd         :      0.08s CPU      0.12s WALL (       1 calls)

     Called by c_bands:
     init_us_2    :      0.02s CPU      0.04s WALL (      72 calls)
     cegterg      :     69.24s CPU     76.44s WALL (      98 calls)

     Called by sum_band:

     Called by *egterg:
     h_psi        :     33.94s CPU     36.82s WALL (    1598 calls)
     s_psi        :      5.34s CPU      5.38s WALL (    1598 calls)
     g_psi        :      0.04s CPU      0.04s WALL (    1428 calls)
     cdiaghg      :     15.64s CPU     17.83s WALL (    1500 calls)

     Called by h_psi:
     h_psi:pot    :     33.86s CPU     36.73s WALL (    1598 calls)
     h_psi:calbec :      8.29s CPU      9.20s WALL (    1598 calls)
     vloc_psi     :     20.13s CPU     22.04s WALL (    1598 calls)
     add_vuspsi   :      5.43s CPU      5.49s WALL (    1598 calls)

     General routines
     calbec       :      8.28s CPU      9.19s WALL (    1598 calls)
     fft          :      0.09s CPU      0.12s WALL (      13 calls)
     ffts         :      0.01s CPU      0.01s WALL (       1 calls)
     fftw         :     19.06s CPU     20.90s WALL (   62862 calls)
     interpolate  :      0.01s CPU      0.01s WALL (       1 calls)
     davcio       :      0.04s CPU      0.06s WALL (      72 calls)

     Parallel routines
     fft_scatter  :      9.76s CPU     11.05s WALL (   62876 calls)

     PWSCF        :  1m19.68s CPU     1m28.15s WALL


   This run was terminated on:  22:52:24   7Aug2024            

=------------------------------------------------------------------------------=
   JOB DONE.
=------------------------------------------------------------------------------=
