
     Program BANDS v.6.0 (svn rev. 13079) starts on  7Aug2024 at 22:55:58 

     This program is part of the open-source Quantum ESPRESSO suite
     for quantum simulation of materials; please cite
         "P. Giannozzi et al., J. Phys.:Condens. Matter 21 395502 (2009);
          URL http://www.quantum-espresso.org", 
     in publications or presentations arising from this work. More details at
     http://www.quantum-espresso.org/quote

     Parallel version (MPI), running on    48 processors
     R & G space division:  proc/nbgrp/npool/nimage =      48

     Reading data from directory:
     ./tmp/aln.save

   Info: using nr1, nr2, nr3 values from input

   Info: using nr1, nr2, nr3 values from input

     IMPORTANT: XC functional enforced from input :
     Exchange-correlation      = PBESOL ( 1  4 10  8 0 0)
     Any further DFT definition will be discarded
     Please, verify this is what you really want

               file Zn.pbesol-dnl-rrkjus_psl.1.0.0.UPF: wavefunction(s)  3D renormalized

     Parallelization info
     --------------------
     sticks:   dense  smooth     PW     G-vecs:    dense   smooth      PW
     Min         113      64     17                 5389     2326     337
     Max         115      65     18                 5392     2331     342
     Sum        5437    3103    859               258683   111743   16319

     high-symmetry point:  0.0000 0.0000 0.0000   x coordinate   0.0000
     high-symmetry point:  0.0000 0.0000 0.6257   x coordinate   0.6257
     high-symmetry point:  0.6667-0.0000 0.6257   x coordinate   1.2924
     high-symmetry point:  0.6667-0.0000 0.0000   x coordinate   1.9181
     high-symmetry point:  0.0000 0.0000 0.0000   x coordinate   2.5848
     high-symmetry point:  0.5000 0.2887 0.0000   x coordinate   3.1621
     high-symmetry point:  0.5000 0.2887 0.6257   x coordinate   3.7878

     Plottable bands (eV) written to file ../data/AlN_Zn_221/bands/bands.gnu
     Bands written to file ../data/AlN_Zn_221/bands/bands

 **************************************************************************

                    xk=(   0.00000,   0.00000,   0.00000  )

     point group C_3v (3m)  
     there are  3 classes
     the character table:

       E     2C3   3s_v 
A_1    1.00  1.00  1.00
A_2    1.00  1.00 -1.00
E      2.00 -1.00  0.00

     the symmetry operations in each class and the name of the first element:

     E        1
                                                                 
     2C3      2    3
                                                                 
     3s_v     4    5    6
                                                                 

     Band symmetry, C_3v (3m)   point group:

     e(  1 -  1) =     -8.09086  eV     1   --> A_1  L_1       
     e(  2 -  3) =     -6.21911  eV     2   --> E    L_3       
     e(  4 -  4) =     -6.13054  eV     1   --> A_1  L_1       
     e(  5 -  5) =     -6.01117  eV     1   --> A_1  L_1       
     e(  6 -  6) =     -5.55382  eV     1   --> A_1  L_1       
     e(  7 -  8) =     -5.48750  eV     2   --> E    L_3       
     e(  9 -  9) =      1.01661  eV     1   --> A_1  L_1       
     e( 10 - 11) =      1.30992  eV     2   --> E    L_3       
     e( 12 - 12) =      1.48230  eV     1   --> A_1  L_1       
     e( 13 - 14) =      1.68817  eV     2   --> E    L_3       
     e( 15 - 16) =      2.04852  eV     2   --> E    L_3       
     e( 17 - 17) =      2.12080  eV     1   --> A_1  L_1       
     e( 18 - 19) =      3.01533  eV     2   --> E    L_3       
     e( 20 - 20) =      3.06550  eV     1   --> A_1  L_1       
     e( 21 - 22) =      3.73172  eV     2   --> E    L_3       
     e( 23 - 23) =      3.86174  eV     1   --> A_1  L_1       
     e( 24 - 24) =      4.81586  eV     1   --> A_2  L_2       
     e( 25 - 26) =      4.89366  eV     2   --> E    L_3       
     e( 27 - 28) =      5.36381  eV     2   -->   ?
     e( 29 - 29) =      5.36541  eV     1   -->   ?
     e( 30 - 31) =      6.13256  eV     2   --> E    L_3       
     e( 32 - 32) =      6.18798  eV     1   --> A_2  L_2       
     e( 33 - 34) =      6.41642  eV     2   --> E    L_3       
     e( 35 - 35) =      7.08468  eV     1   --> A_1  L_1       
     e( 36 - 37) =      7.24303  eV     2   --> E    L_3       
     e( 38 - 38) =     10.87327  eV     1   --> A_1  L_1       
     e( 39 - 39) =     12.64204  eV     1   --> A_1  L_1       
     e( 40 - 41) =     12.67440  eV     2   --> E    L_3       
     e( 42 - 43) =     12.99343  eV     2   --> E    L_3       
     e( 44 - 44) =     13.09735  eV     1   --> A_1  L_1       
     e( 45 - 45) =     13.63537  eV     1   --> A_1  L_1       
     e( 46 - 46) =     14.40061  eV     1   --> A_1  L_1       
     e( 47 - 48) =     15.14112  eV     2   --> E    L_3       
     e( 49 - 50) =     16.93438  eV     2   --> E    L_3       
     e( 51 - 51) =     17.11022  eV     1   --> A_1  L_1       
     e( 52 - 52) =     17.45222  eV     1   --> A_1  L_1       
     e( 53 - 53) =     17.68074  eV     1   --> A_2  L_2       
     e( 54 - 55) =     18.09233  eV     2   --> E    L_3       
     e( 56 - 57) =     18.20442  eV     2   --> E    L_3       
     e( 58 - 58) =     18.58328  eV     1   --> A_1  L_1       
     e( 59 - 60) =     18.99119  eV     2   --> E    L_3       
     e( 61 - 62) =     19.56836  eV     2   --> E    L_3       
     e( 63 - 63) =     19.74686  eV     1   --> A_1  L_1       
     e( 64 - 64) =     20.19890  eV     1   -->   ?

 **************************************************************************

 **************************************************************************

                    xk=(   0.00000,   0.00000,   0.03129  )

     Band symmetry, C_3v (3m)   point group:

     e(  1 -  1) =     -8.08852  eV     1   --> A_1  L_1       
     e(  2 -  3) =     -6.21791  eV     2   --> E    L_3       
     e(  4 -  4) =     -6.13019  eV     1   --> A_1  L_1       
     e(  5 -  5) =     -6.01515  eV     1   --> A_1  L_1       
     e(  6 -  6) =     -5.55428  eV     1   --> A_1  L_1       
     e(  7 -  8) =     -5.48846  eV     2   --> E    L_3       
     e(  9 -  9) =      1.02255  eV     1   --> A_1  L_1       
     e( 10 - 11) =      1.30618  eV     2   --> E    L_3       
     e( 12 - 12) =      1.48262  eV     1   --> A_1  L_1       
     e( 13 - 14) =      1.68751  eV     2   --> E    L_3       
     e( 15 - 16) =      2.04793  eV     2   --> E    L_3       
     e( 17 - 17) =      2.11486  eV     1   --> A_1  L_1       
     e( 18 - 19) =      3.00888  eV     2   --> E    L_3       
     e( 20 - 20) =      3.05418  eV     1   --> A_1  L_1       
     e( 21 - 22) =      3.73974  eV     2   --> E    L_3       
     e( 23 - 23) =      3.87400  eV     1   --> A_1  L_1       
     e( 24 - 24) =      4.81758  eV     1   --> A_2  L_2       
     e( 25 - 26) =      4.89600  eV     2   --> E    L_3       
     e( 27 - 28) =      5.37131  eV     2   --> E    L_3       
     e( 29 - 29) =      5.37771  eV     1   --> A_1  L_1       
     e( 30 - 31) =      6.13283  eV     2   --> E    L_3       
     e( 32 - 32) =      6.18532  eV     1   --> A_2  L_2       
     e( 33 - 34) =      6.41481  eV     2   --> E    L_3       
     e( 35 - 35) =      7.07037  eV     1   --> A_1  L_1       
     e( 36 - 37) =      7.24182  eV     2   --> E    L_3       
     e( 38 - 38) =     10.88589  eV     1   --> A_1  L_1       
     e( 39 - 39) =     12.63701  eV     1   --> A_1  L_1       
     e( 40 - 41) =     12.66978  eV     2   --> E    L_3       
     e( 42 - 43) =     12.98434  eV     2   --> E    L_3       
     e( 44 - 44) =     13.08728  eV     1   --> A_1  L_1       
     e( 45 - 45) =     13.62975  eV     1   --> A_1  L_1       
     e( 46 - 46) =     14.42847  eV     1   --> A_1  L_1       
     e( 47 - 48) =     15.16158  eV     2   --> E    L_3       
     e( 49 - 50) =     16.92480  eV     2   --> E    L_3       
     e( 51 - 51) =     17.09932  eV     1   --> A_1  L_1       
     e( 52 - 52) =     17.44425  eV     1   --> A_1  L_1       
     e( 53 - 53) =     17.68777  eV     1   --> A_2  L_2       
     e( 54 - 55) =     18.09661  eV     2   --> E    L_3       
     e( 56 - 57) =     18.20354  eV     2   --> E    L_3       
     e( 58 - 58) =     18.58843  eV     1   --> A_1  L_1       
     e( 59 - 60) =     18.99135  eV     2   --> E    L_3       
     e( 61 - 62) =     19.55341  eV     2   --> E    L_3       
     e( 63 - 63) =     19.72115  eV     1   --> A_1  L_1       
     e( 64 - 64) =     20.19117  eV     1   -->   ?

 **************************************************************************

 **************************************************************************

                    xk=(   0.00000,   0.00000,   0.06257  )

     Band symmetry, C_3v (3m)   point group:

     e(  1 -  1) =     -8.08149  eV     1   --> A_1  L_1       
     e(  2 -  3) =     -6.21431  eV     2   --> E    L_3       
     e(  4 -  4) =     -6.12953  eV     1   --> A_1  L_1       
     e(  5 -  5) =     -6.02666  eV     1   --> A_1  L_1       
     e(  6 -  6) =     -5.55567  eV     1   --> A_1  L_1       
     e(  7 -  8) =     -5.49131  eV     2   --> E    L_3       
     e(  9 -  9) =      1.04007  eV     1   --> A_1  L_1       
     e( 10 - 11) =      1.29523  eV     2   --> E    L_3       
     e( 12 - 12) =      1.48355  eV     1   --> A_1  L_1       
     e( 13 - 14) =      1.68553  eV     2   --> E    L_3       
     e( 15 - 16) =      2.04611  eV     2   --> E    L_3       
     e( 17 - 17) =      2.09805  eV     1   --> A_1  L_1       
     e( 18 - 19) =      2.98994  eV     2   --> E    L_3       
     e( 20 - 20) =      3.02119  eV     1   --> A_1  L_1       
     e( 21 - 22) =      3.76370  eV     2   --> E    L_3       
     e( 23 - 23) =      3.90995  eV     1   --> A_1  L_1       
     e( 24 - 24) =      4.82274  eV     1   --> A_2  L_2       
     e( 25 - 26) =      4.90292  eV     2   --> E    L_3       
     e( 27 - 28) =      5.39329  eV     2   --> E    L_3       
     e( 29 - 29) =      5.41346  eV     1   --> A_1  L_1       
     e( 30 - 31) =      6.13356  eV     2   --> E    L_3       
     e( 32 - 32) =      6.17738  eV     1   --> A_2  L_2       
     e( 33 - 34) =      6.41009  eV     2   --> E    L_3       
     e( 35 - 35) =      7.02823  eV     1   --> A_1  L_1       
     e( 36 - 37) =      7.23822  eV     2   --> E    L_3       
     e( 38 - 38) =     10.92305  eV     1   --> A_1  L_1       
     e( 39 - 39) =     12.62048  eV     1   --> A_1  L_1       
     e( 40 - 41) =     12.65422  eV     2   --> E    L_3       
     e( 42 - 43) =     12.96072  eV     2   --> E    L_3       
     e( 44 - 44) =     13.06056  eV     1   --> A_1  L_1       
     e( 45 - 45) =     13.61746  eV     1   --> A_1  L_1       
     e( 46 - 46) =     14.50515  eV     1   --> A_1  L_1       
     e( 47 - 48) =     15.22087  eV     2   --> E    L_3       
     e( 49 - 50) =     16.89644  eV     2   --> E    L_3       
     e( 51 - 51) =     17.06683  eV     1   --> A_1  L_1       
     e( 52 - 52) =     17.42197  eV     1   --> A_1  L_1       
     e( 53 - 53) =     17.70880  eV     1   --> A_2  L_2       
     e( 54 - 55) =     18.10860  eV     2   --> E    L_3       
     e( 56 - 57) =     18.20211  eV     2   --> E    L_3       
     e( 58 - 58) =     18.60255  eV     1   --> A_1  L_1       
     e( 59 - 60) =     18.99109  eV     2   --> E    L_3       
     e( 61 - 62) =     19.50992  eV     2   --> E    L_3       
     e( 63 - 63) =     19.64811  eV     1   --> A_1  L_1       
     e( 64 - 64) =     20.16820  eV     1   -->   ?

 **************************************************************************

 **************************************************************************

                    xk=(   0.00000,   0.00000,   0.09386  )

     Band symmetry, C_3v (3m)   point group:

     e(  1 -  1) =     -8.06980  eV     1   --> A_1  L_1       
     e(  2 -  3) =     -6.20835  eV     2   --> E    L_3       
     e(  4 -  4) =     -6.13017  eV     1   --> A_1  L_1       
     e(  5 -  5) =     -6.04387  eV     1   --> A_1  L_1       
     e(  6 -  6) =     -5.55798  eV     1   --> A_1  L_1       
     e(  7 -  8) =     -5.49607  eV     2   --> E    L_3       
     e(  9 -  9) =      1.06818  eV     1   --> A_1  L_1       
     e( 10 - 11) =      1.27786  eV     2   --> E    L_3       
     e( 12 - 12) =      1.48502  eV     1   --> A_1  L_1       
     e( 13 - 14) =      1.68220  eV     2   --> E    L_3       
     e( 15 - 16) =      2.04286  eV     2   --> E    L_3       
     e( 17 - 17) =      2.07323  eV     1   --> A_1  L_1       
     e( 18 - 19) =      2.95967  eV     2   --> E    L_3       
     e( 20 - 20) =      2.96916  eV     1   --> A_1  L_1       
     e( 21 - 22) =      3.80324  eV     2   --> E    L_3       
     e( 23 - 23) =      3.96742  eV     1   --> A_1  L_1       
     e( 24 - 24) =      4.83131  eV     1   --> A_2  L_2       
     e( 25 - 26) =      4.91420  eV     2   --> E    L_3       
     e( 27 - 28) =      5.42825  eV     2   --> E    L_3       
     e( 29 - 29) =      5.46943  eV     1   --> A_1  L_1       
     e( 30 - 31) =      6.13443  eV     2   --> E    L_3       
     e( 32 - 32) =      6.16426  eV     1   --> A_2  L_2       
     e( 33 - 34) =      6.40253  eV     2   --> E    L_3       
     e( 35 - 35) =      6.96048  eV     1   --> A_1  L_1       
     e( 36 - 37) =      7.23234  eV     2   --> E    L_3       
     e( 38 - 38) =     10.98284  eV     1   --> A_1  L_1       
     e( 39 - 39) =     12.58876  eV     1   --> A_1  L_1       
     e( 40 - 41) =     12.62332  eV     2   --> E    L_3       
     e( 42 - 43) =     12.93197  eV     2   --> E    L_3       
     e( 44 - 44) =     13.02667  eV     1   --> A_1  L_1       
     e( 45 - 45) =     13.60646  eV     1   --> A_1  L_1       
     e( 46 - 46) =     14.61604  eV     1   --> A_1  L_1       
     e( 47 - 48) =     15.31343  eV     2   --> E    L_3       
     e( 49 - 50) =     16.85055  eV     2   --> E    L_3       
     e( 51 - 51) =     17.01380  eV     1   --> A_1  L_1       
     e( 52 - 52) =     17.38920  eV     1   --> A_1  L_1       
     e( 53 - 53) =     17.74369  eV     1   --> A_2  L_2       
     e( 54 - 55) =     18.12428  eV     2   --> E    L_3       
     e( 56 - 57) =     18.20506  eV     2   --> E    L_3       
     e( 58 - 58) =     18.62204  eV     1   --> A_1  L_1       
     e( 59 - 60) =     18.98795  eV     2   --> E    L_3       
     e( 61 - 62) =     19.44204  eV     2   --> E    L_3       
     e( 63 - 63) =     19.53745  eV     1   --> A_1  L_1       
     e( 64 - 64) =     20.13103  eV     1   -->   ?

 **************************************************************************

 **************************************************************************

                    xk=(   0.00000,   0.00000,   0.12514  )

     Band symmetry, C_3v (3m)   point group:

     e(  1 -  1) =     -8.05347  eV     1   --> A_1  L_1       
     e(  2 -  3) =     -6.20006  eV     2   --> E    L_3       
     e(  4 -  4) =     -6.13691  eV     1   --> A_1  L_1       
     e(  5 -  5) =     -6.06166  eV     1   --> A_1  L_1       
     e(  6 -  6) =     -5.56122  eV     1   --> A_1  L_1       
     e(  7 -  8) =     -5.50273  eV     2   --> E    L_3       
     e(  9 -  9) =      1.10516  eV     1   --> A_1  L_1       
     e( 10 - 11) =      1.25524  eV     2   --> E    L_3       
     e( 12 - 12) =      1.48678  eV     1   --> A_1  L_1       
     e( 13 - 14) =      1.67741  eV     2   --> E    L_3       
     e( 15 - 16) =      2.03793  eV     2   --> E    L_3       
     e( 17 - 17) =      2.04469  eV     1   --> A_1  L_1       
     e( 18 - 18) =      2.90173  eV     1   --> A_1  L_1       
     e( 19 - 20) =      2.91994  eV     2   --> E    L_3       
     e( 21 - 22) =      3.85763  eV     2   --> E    L_3       
     e( 23 - 23) =      4.04337  eV     1   --> A_1  L_1       
     e( 24 - 24) =      4.84328  eV     1   --> A_2  L_2       
     e( 25 - 26) =      4.92955  eV     2   --> E    L_3       
     e( 27 - 28) =      5.47388  eV     2   --> E    L_3       
     e( 29 - 29) =      5.54079  eV     1   --> A_1  L_1       
     e( 30 - 31) =      6.13491  eV     2   --> E    L_3       
     e( 32 - 32) =      6.14610  eV     1   --> A_2  L_2       
     e( 33 - 34) =      6.39267  eV     2   --> E    L_3       
     e( 35 - 35) =      6.87058  eV     1   --> A_1  L_1       
     e( 36 - 37) =      7.22434  eV     2   --> E    L_3       
     e( 38 - 38) =     11.06241  eV     1   --> A_1  L_1       
     e( 39 - 39) =     12.53852  eV     1   --> A_1  L_1       
     e( 40 - 41) =     12.57327  eV     2   --> E    L_3       
     e( 42 - 43) =     12.90822  eV     2   --> E    L_3       
     e( 44 - 44) =     12.99686  eV     1   --> A_1  L_1       
     e( 45 - 45) =     13.60107  eV     1   --> A_1  L_1       
     e( 46 - 46) =     14.74725  eV     1   --> A_1  L_1       
     e( 47 - 48) =     15.43197  eV     2   --> E    L_3       
     e( 49 - 50) =     16.78928  eV     2   --> E    L_3       
     e( 51 - 51) =     16.94316  eV     1   --> A_1  L_1       
     e( 52 - 52) =     17.34990  eV     1   --> A_1  L_1       
     e( 53 - 53) =     17.79220  eV     1   --> A_2  L_2       
     e( 54 - 55) =     18.13412  eV     2   --> E    L_3       
     e( 56 - 57) =     18.22301  eV     2   --> E    L_3       
     e( 58 - 58) =     18.64222  eV     1   --> A_1  L_1       
     e( 59 - 60) =     18.97707  eV     2   --> E    L_3       
     e( 61 - 62) =     19.35723  eV     2   --> E    L_3       
     e( 63 - 63) =     19.39981  eV     1   --> A_1  L_1       
     e( 64 - 64) =     20.08126  eV     1   -->   ?

 **************************************************************************

 **************************************************************************

                    xk=(   0.00000,   0.00000,   0.15643  )

     Band symmetry, C_3v (3m)   point group:

     e(  1 -  1) =     -8.03254  eV     1   --> A_1  L_1       
     e(  2 -  3) =     -6.18949  eV     2   --> E    L_3       
     e(  4 -  4) =     -6.15823  eV     1   --> A_1  L_1       
     e(  5 -  5) =     -6.07110  eV     1   --> A_1  L_1       
     e(  6 -  6) =     -5.56540  eV     1   --> A_1  L_1       
     e(  7 -  8) =     -5.51127  eV     2   --> E    L_3       
     e(  9 -  9) =      1.14839  eV     1   --> A_1  L_1       
     e( 10 - 11) =      1.22875  eV     2   --> E    L_3       
     e( 12 - 12) =      1.48836  eV     1   --> A_1  L_1       
     e( 13 - 14) =      1.67101  eV     2   --> E    L_3       
     e( 15 - 15) =      2.01784  eV     1   --> A_1  L_1       
     e( 16 - 17) =      2.03109  eV     2   --> E    L_3       
     e( 18 - 18) =      2.82290  eV     1   --> A_1  L_1       
     e( 19 - 20) =      2.87314  eV     2   --> E    L_3       
     e( 21 - 22) =      3.92574  eV     2   --> E    L_3       
     e( 23 - 23) =      4.13448  eV     1   --> A_1  L_1       
     e( 24 - 24) =      4.85861  eV     1   --> A_2  L_2       
     e( 25 - 26) =      4.94868  eV     2   --> E    L_3       
     e( 27 - 28) =      5.52733  eV     2   --> E    L_3       
     e( 29 - 29) =      5.62153  eV     1   --> A_1  L_1       
     e( 30 - 30) =      6.12310  eV     1   --> A_2  L_2       
     e( 31 - 32) =      6.13417  eV     2   --> E    L_3       
     e( 33 - 34) =      6.38128  eV     2   --> E    L_3       
     e( 35 - 35) =      6.76320  eV     1   --> A_1  L_1       
     e( 36 - 37) =      7.21445  eV     2   --> E    L_3       
     e( 38 - 38) =     11.15836  eV     1   --> A_1  L_1       
     e( 39 - 39) =     12.47069  eV     1   --> A_1  L_1       
     e( 40 - 41) =     12.50548  eV     2   --> E    L_3       
     e( 42 - 43) =     12.89415  eV     2   --> E    L_3       
     e( 44 - 44) =     12.97809  eV     1   --> A_1  L_1       
     e( 45 - 45) =     13.60173  eV     1   --> A_1  L_1       
     e( 46 - 46) =     14.88798  eV     1   --> A_1  L_1       
     e( 47 - 48) =     15.56865  eV     2   --> E    L_3       
     e( 49 - 50) =     16.71591  eV     2   --> E    L_3       
     e( 51 - 51) =     16.86013  eV     1   --> A_1  L_1       
     e( 52 - 52) =     17.30682  eV     1   --> A_1  L_1       
     e( 53 - 53) =     17.85398  eV     1   --> A_2  L_2       
     e( 54 - 55) =     18.13287  eV     2   --> E    L_3       
     e( 56 - 57) =     18.26201  eV     2   --> E    L_3       
     e( 58 - 58) =     18.65806  eV     1   --> A_1  L_1       
     e( 59 - 60) =     18.94937  eV     2   --> E    L_3       
     e( 61 - 61) =     19.24429  eV     1   --> A_1  L_1       
     e( 62 - 63) =     19.26788  eV     2   --> E    L_3       
     e( 64 - 64) =     20.02142  eV     1   -->   ?

 **************************************************************************

 **************************************************************************

                    xk=(   0.00000,   0.00000,   0.18771  )

     Band symmetry, C_3v (3m)   point group:

     e(  1 -  1) =     -8.00706  eV     1   --> A_1  L_1       
     e(  2 -  2) =     -6.19609  eV     1   --> A_1  L_1       
     e(  3 -  4) =     -6.17671  eV     2   --> E    L_3       
     e(  5 -  5) =     -6.06974  eV     1   --> A_1  L_1       
     e(  6 -  6) =     -5.57053  eV     1   --> A_1  L_1       
     e(  7 -  8) =     -5.52168  eV     2   --> E    L_3       
     e(  9 -  9) =      1.19428  eV     1   --> A_1  L_1       
     e( 10 - 11) =      1.19985  eV     2   --> E    L_3       
     e( 12 - 12) =      1.48885  eV     1   --> A_1  L_1       
     e( 13 - 14) =      1.66278  eV     2   --> E    L_3       
     e( 15 - 15) =      1.99908  eV     1   --> A_1  L_1       
     e( 16 - 17) =      2.02218  eV     2   --> E    L_3       
     e( 18 - 18) =      2.73664  eV     1   --> A_1  L_1       
     e( 19 - 20) =      2.82188  eV     2   --> E    L_3       
     e( 21 - 22) =      4.00613  eV     2   --> E    L_3       
     e( 23 - 23) =      4.23751  eV     1   --> A_1  L_1       
     e( 24 - 24) =      4.87723  eV     1   --> A_2  L_2       
     e( 25 - 26) =      4.97138  eV     2   --> E    L_3       
     e( 27 - 28) =      5.58550  eV     2   --> E    L_3       
     e( 29 - 29) =      5.70400  eV     1   --> A_1  L_1       
     e( 30 - 30) =      6.09553  eV     1   --> A_2  L_2       
     e( 31 - 32) =      6.13106  eV     2   --> E    L_3       
     e( 33 - 34) =      6.36946  eV     2   --> E    L_3       
     e( 35 - 35) =      6.64477  eV     1   --> A_1  L_1       
     e( 36 - 37) =      7.20298  eV     2   --> E    L_3       
     e( 38 - 38) =     11.26703  eV     1   --> A_1  L_1       
     e( 39 - 39) =     12.39121  eV     1   --> A_1  L_1       
     e( 40 - 41) =     12.42637  eV     2   --> E    L_3       
     e( 42 - 43) =     12.88841  eV     2   --> E    L_3       
     e( 44 - 44) =     12.97084  eV     1   --> A_1  L_1       
     e( 45 - 45) =     13.60715  eV     1   --> A_1  L_1       
     e( 46 - 46) =     15.02946  eV     1   --> A_1  L_1       
     e( 47 - 48) =     15.71543  eV     2   --> E    L_3       
     e( 49 - 50) =     16.63522  eV     2   --> E    L_3       
     e( 51 - 51) =     16.77193  eV     1   --> A_1  L_1       
     e( 52 - 52) =     17.26156  eV     1   --> A_1  L_1       
     e( 53 - 53) =     17.92862  eV     1   --> A_2  L_2       
     e( 54 - 55) =     18.12548  eV     2   --> E    L_3       
     e( 56 - 57) =     18.31711  eV     2   --> E    L_3       
     e( 58 - 58) =     18.66420  eV     1   --> A_1  L_1       
     e( 59 - 60) =     18.89153  eV     2   --> E    L_3       
     e( 61 - 61) =     19.07840  eV     1   --> A_1  L_1       
     e( 62 - 63) =     19.19153  eV     2   --> E    L_3       
     e( 64 - 64) =     19.95452  eV     1   -->   ?

 **************************************************************************

 **************************************************************************

                    xk=(   0.00000,   0.00000,   0.21900  )

     Band symmetry, C_3v (3m)   point group:

     e(  1 -  1) =     -7.97710  eV     1   --> A_1  L_1       
     e(  2 -  2) =     -6.24551  eV     1   --> A_1  L_1       
     e(  3 -  4) =     -6.16182  eV     2   --> E    L_3       
     e(  5 -  5) =     -6.06196  eV     1   --> A_1  L_1       
     e(  6 -  6) =     -5.57662  eV     1   --> A_1  L_1       
     e(  7 -  8) =     -5.53394  eV     2   --> E    L_3       
     e(  9 - 10) =      1.16992  eV     2   --> E    L_3       
     e( 11 - 11) =      1.23843  eV     1   --> A_1  L_1       
     e( 12 - 12) =      1.48685  eV     1   --> A_1  L_1       
     e( 13 - 14) =      1.65244  eV     2   --> E    L_3       
     e( 15 - 15) =      1.99528  eV     1   --> A_1  L_1       
     e( 16 - 17) =      2.01114  eV     2   --> E    L_3       
     e( 18 - 18) =      2.64670  eV     1   --> A_1  L_1       
     e( 19 - 20) =      2.76875  eV     2   --> E    L_3       
     e( 21 - 22) =      4.09722  eV     2   --> E    L_3       
     e( 23 - 23) =      4.34949  eV     1   --> A_1  L_1       
     e( 24 - 24) =      4.89910  eV     1   --> A_2  L_2       
     e( 25 - 26) =      4.99747  eV     2   --> E    L_3       
     e( 27 - 28) =      5.64526  eV     2   --> E    L_3       
     e( 29 - 29) =      5.77701  eV     1   --> A_1  L_1       
     e( 30 - 30) =      6.06368  eV     1   --> A_2  L_2       
     e( 31 - 32) =      6.12416  eV     2   --> E    L_3       
     e( 33 - 34) =      6.35848  eV     2   --> E    L_3       
     e( 35 - 35) =      6.52535  eV     1   --> A_1  L_1       
     e( 36 - 37) =      7.19026  eV     2   --> E    L_3       
     e( 38 - 38) =     11.38450  eV     1   --> A_1  L_1       
     e( 39 - 39) =     12.30822  eV     1   --> A_1  L_1       
     e( 40 - 41) =     12.34337  eV     2   --> E    L_3       
     e( 42 - 43) =     12.88740  eV     2   --> E    L_3       
     e( 44 - 44) =     12.97196  eV     1   --> A_1  L_1       
     e( 45 - 45) =     13.61552  eV     1   --> A_1  L_1       
     e( 46 - 46) =     15.16350  eV     1   --> A_1  L_1       
     e( 47 - 48) =     15.86272  eV     2   --> E    L_3       
     e( 49 - 50) =     16.55460  eV     2   --> E    L_3       
     e( 51 - 51) =     16.68736  eV     1   --> A_1  L_1       
     e( 52 - 52) =     17.21521  eV     1   --> A_1  L_1       
     e( 53 - 53) =     18.01561  eV     1   --> A_2  L_2       
     e( 54 - 55) =     18.11608  eV     2   --> E    L_3       
     e( 56 - 57) =     18.38217  eV     2   --> E    L_3       
     e( 58 - 58) =     18.65331  eV     1   --> A_1  L_1       
     e( 59 - 60) =     18.79897  eV     2   --> E    L_3       
     e( 61 - 61) =     18.91009  eV     1   --> A_1  L_1       
     e( 62 - 63) =     19.13888  eV     2   --> E    L_3       
     e( 64 - 64) =     19.88366  eV     1   -->   ?

 **************************************************************************

 **************************************************************************

                    xk=(   0.00000,   0.00000,   0.25029  )

     Band symmetry, C_3v (3m)   point group:

     e(  1 -  1) =     -7.94273  eV     1   --> A_1  L_1       
     e(  2 -  2) =     -6.30299  eV     1   --> A_1  L_1       
     e(  3 -  4) =     -6.14490  eV     2   --> E    L_3       
     e(  5 -  5) =     -6.05065  eV     1   --> A_1  L_1       
     e(  6 -  6) =     -5.58367  eV     1   --> A_1  L_1       
     e(  7 -  8) =     -5.54802  eV     2   --> E    L_3       
     e(  9 - 10) =      1.14023  eV     2   --> E    L_3       
     e( 11 - 11) =      1.27632  eV     1   --> A_1  L_1       
     e( 12 - 12) =      1.48112  eV     1   --> A_1  L_1       
     e( 13 - 14) =      1.63965  eV     2   --> E    L_3       
     e( 15 - 16) =      1.99813  eV     2   --> E    L_3       
     e( 17 - 17) =      2.01213  eV     1   --> A_1  L_1       
     e( 18 - 18) =      2.55712  eV     1   --> A_1  L_1       
     e( 19 - 20) =      2.71610  eV     2   --> E    L_3       
     e( 21 - 22) =      4.19736  eV     2   --> E    L_3       
     e( 23 - 23) =      4.46770  eV     1   --> A_1  L_1       
     e( 24 - 24) =      4.92413  eV     1   --> A_2  L_2       
     e( 25 - 26) =      5.02679  eV     2   --> E    L_3       
     e( 27 - 28) =      5.70359  eV     2   --> E    L_3       
     e( 29 - 29) =      5.82111  eV     1   --> A_1  L_1       
     e( 30 - 30) =      6.02789  eV     1   --> A_2  L_2       
     e( 31 - 32) =      6.11210  eV     2   --> E    L_3       
     e( 33 - 34) =      6.34953  eV     2   --> E    L_3       
     e( 35 - 35) =      6.42347  eV     1   --> A_1  L_1       
     e( 36 - 37) =      7.17672  eV     2   --> E    L_3       
     e( 38 - 38) =     11.50635  eV     1   --> A_1  L_1       
     e( 39 - 39) =     12.22989  eV     1   --> A_1  L_1       
     e( 40 - 41) =     12.26267  eV     2   --> E    L_3       
     e( 42 - 43) =     12.88763  eV     2   --> E    L_3       
     e( 44 - 44) =     12.97758  eV     1   --> A_1  L_1       
     e( 45 - 45) =     13.62492  eV     1   --> A_1  L_1       
     e( 46 - 46) =     15.28158  eV     1   --> A_1  L_1       
     e( 47 - 48) =     15.99488  eV     2   --> E    L_3       
     e( 49 - 50) =     16.48814  eV     2   --> E    L_3       
     e( 51 - 51) =     16.61636  eV     1   --> A_1  L_1       
     e( 52 - 52) =     17.16887  eV     1   --> A_1  L_1       
     e( 53 - 54) =     18.10607  eV     2   --> E    L_3       
     e( 55 - 55) =     18.11436  eV     1   --> A_2  L_2       
     e( 56 - 57) =     18.44665  eV     2   --> E    L_3       
     e( 58 - 58) =     18.60764  eV     1   --> A_1  L_1       
     e( 59 - 60) =     18.69145  eV     2   --> E    L_3       
     e( 61 - 61) =     18.75658  eV     1   --> A_1  L_1       
     e( 62 - 63) =     19.10347  eV     2   --> E    L_3       
     e( 64 - 64) =     19.81193  eV     1   -->   ?

 **************************************************************************

 **************************************************************************

                    xk=(   0.00000,   0.00000,   0.28157  )

     Band symmetry, C_3v (3m)   point group:

     e(  1 -  1) =     -7.90405  eV     1   --> A_1  L_1       
     e(  2 -  2) =     -6.36665  eV     1   --> A_1  L_1       
     e(  3 -  4) =     -6.12607  eV     2   --> E    L_3       
     e(  5 -  5) =     -6.03708  eV     1   --> A_1  L_1       
     e(  6 -  6) =     -5.59168  eV     1   --> A_1  L_1       
     e(  7 -  8) =     -5.56387  eV     2   --> E    L_3       
     e(  9 - 10) =      1.11187  eV     2   --> E    L_3       
     e( 11 - 11) =      1.30428  eV     1   --> A_1  L_1       
     e( 12 - 12) =      1.47187  eV     1   --> A_1  L_1       
     e( 13 - 14) =      1.62405  eV     2   --> E    L_3       
     e( 15 - 16) =      1.98350  eV     2   --> E    L_3       
     e( 17 - 17) =      2.05044  eV     1   --> A_1  L_1       
     e( 18 - 18) =      2.47349  eV     1   --> A_1  L_1       
     e( 19 - 20) =      2.66590  eV     2   --> E    L_3       
     e( 21 - 22) =      4.30492  eV     2   --> E    L_3       
     e( 23 - 23) =      4.58958  eV     1   --> A_1  L_1       
     e( 24 - 24) =      4.95223  eV     1   --> A_2  L_2       
     e( 25 - 26) =      5.05917  eV     2   --> E    L_3       
     e( 27 - 28) =      5.75770  eV     2   --> E    L_3       
     e( 29 - 29) =      5.80671  eV     1   --> A_1  L_1       
     e( 30 - 30) =      5.98852  eV     1   --> A_2  L_2       
     e( 31 - 32) =      6.09395  eV     2   --> E    L_3       
     e( 33 - 34) =      6.34331  eV     2   --> E    L_3       
     e( 35 - 35) =      6.36786  eV     1   --> A_1  L_1       
     e( 36 - 37) =      7.16279  eV     2   --> E    L_3       
     e( 38 - 38) =     11.62640  eV     1   --> A_1  L_1       
     e( 39 - 39) =     12.16486  eV     1   --> A_1  L_1       
     e( 40 - 41) =     12.18896  eV     2   --> E    L_3       
     e( 42 - 43) =     12.88608  eV     2   --> E    L_3       
     e( 44 - 44) =     12.98419  eV     1   --> A_1  L_1       
     e( 45 - 45) =     13.63335  eV     1   --> A_1  L_1       
     e( 46 - 46) =     15.37515  eV     1   --> A_1  L_1       
     e( 47 - 48) =     16.08017  eV     2   --> E    L_3       
     e( 49 - 50) =     16.46598  eV     2   --> E    L_3       
     e( 51 - 51) =     16.56904  eV     1   --> A_1  L_1       
     e( 52 - 52) =     17.12382  eV     1   --> A_1  L_1       
     e( 53 - 54) =     18.09459  eV     2   --> E    L_3       
     e( 55 - 55) =     18.22420  eV     1   --> A_2  L_2       
     e( 56 - 57) =     18.46178  eV     2   --> E    L_3       
     e( 58 - 58) =     18.49134  eV     1   --> A_1  L_1       
     e( 59 - 60) =     18.63248  eV     2   --> E    L_3       
     e( 61 - 61) =     18.65273  eV     1   --> A_1  L_1       
     e( 62 - 63) =     19.07611  eV     2   --> E    L_3       
     e( 64 - 64) =     19.72440  eV     1   -->   ?

 **************************************************************************

 **************************************************************************

                    xk=(   0.00000,   0.00000,   0.31286  )

     Band symmetry, C_3v (3m)   point group:

     e(  1 -  1) =     -7.86116  eV     1   --> A_1  L_1       
     e(  2 -  2) =     -6.43527  eV     1   --> A_1  L_1       
     e(  3 -  4) =     -6.10548  eV     2   --> E    L_3       
     e(  5 -  5) =     -6.02188  eV     1   --> A_1  L_1       
     e(  6 -  6) =     -5.60063  eV     1   --> A_1  L_1       
     e(  7 -  8) =     -5.58145  eV     2   --> E    L_3       
     e(  9 - 10) =      1.08572  eV     2   --> E    L_3       
     e( 11 - 11) =      1.32001  eV     1   --> A_1  L_1       
     e( 12 - 12) =      1.46181  eV     1   --> A_1  L_1       
     e( 13 - 14) =      1.60536  eV     2   --> E    L_3       
     e( 15 - 16) =      1.96783  eV     2   --> E    L_3       
     e( 17 - 17) =      2.09959  eV     1   --> A_1  L_1       
     e( 18 - 18) =      2.40826  eV     1   --> A_1  L_1       
     e( 19 - 20) =      2.61966  eV     2   --> E    L_3       
     e( 21 - 22) =      4.41830  eV     2   --> E    L_3       
     e( 23 - 23) =      4.71245  eV     1   --> A_1  L_1       
     e( 24 - 24) =      4.98330  eV     1   --> A_2  L_2       
     e( 25 - 26) =      5.09446  eV     2   --> E    L_3       
     e( 27 - 27) =      5.72009  eV     1   --> A_1  L_1       
     e( 28 - 29) =      5.80505  eV     2   --> E    L_3       
     e( 30 - 30) =      5.94596  eV     1   --> A_2  L_2       
     e( 31 - 32) =      6.06960  eV     2   --> E    L_3       
     e( 33 - 34) =      6.33972  eV     2   --> E    L_3       
     e( 35 - 35) =      6.37176  eV     1   --> A_1  L_1       
     e( 36 - 37) =      7.14892  eV     2   --> E    L_3       
     e( 38 - 38) =     11.73354  eV     1   --> A_1  L_1       
     e( 39 - 41) =     12.12574  eV     3   --> A_1  L_1       
     e( 39 - 41) =     12.12574  eV     3   --> E    L_3       
     e( 42 - 43) =     12.88012  eV     2   --> E    L_3       
     e( 44 - 44) =     12.98874  eV     1   --> A_1  L_1       
     e( 45 - 45) =     13.63876  eV     1   --> A_1  L_1       
     e( 46 - 46) =     15.43828  eV     1   --> A_1  L_1       
     e( 47 - 48) =     16.08825  eV     2   --> E    L_3       
     e( 49 - 50) =     16.51602  eV     2   --> E    L_3       
     e( 51 - 51) =     16.55248  eV     1   --> A_1  L_1       
     e( 52 - 52) =     17.08157  eV     1   --> A_1  L_1       
     e( 53 - 54) =     18.07729  eV     2   --> E    L_3       
     e( 55 - 55) =     18.33143  eV     1   --> A_1  L_1       
     e( 56 - 56) =     18.34440  eV     1   --> A_2  L_2       
     e( 57 - 58) =     18.38459  eV     2   --> E    L_3       
     e( 59 - 59) =     18.57163  eV     1   --> A_1  L_1       
     e( 60 - 61) =     18.67627  eV     2   --> E    L_3       
     e( 62 - 63) =     19.05562  eV     2   --> E    L_3       
     e( 64 - 64) =     19.58329  eV     1   --> A_1  L_1       

 **************************************************************************

 **************************************************************************

                    xk=(   0.00000,   0.00000,   0.34414  )

     Band symmetry, C_3v (3m)   point group:

     e(  1 -  1) =     -7.81420  eV     1   --> A_1  L_1       
     e(  2 -  2) =     -6.50784  eV     1   --> A_1  L_1       
     e(  3 -  4) =     -6.08325  eV     2   --> E    L_3       
     e(  5 -  5) =     -6.00548  eV     1   --> A_1  L_1       
     e(  6 -  6) =     -5.61049  eV     1   --> A_1  L_1       
     e(  7 -  8) =     -5.60068  eV     2   --> E    L_3       
     e(  9 - 10) =      1.06247  eV     2   --> E    L_3       
     e( 11 - 11) =      1.32277  eV     1   --> A_1  L_1       
     e( 12 - 12) =      1.45497  eV     1   --> A_1  L_1       
     e( 13 - 14) =      1.58347  eV     2   --> E    L_3       
     e( 15 - 16) =      1.95185  eV     2   --> E    L_3       
     e( 17 - 17) =      2.12494  eV     1   --> A_1  L_1       
     e( 18 - 18) =      2.39439  eV     1   --> A_1  L_1       
     e( 19 - 20) =      2.57834  eV     2   --> E    L_3       
     e( 21 - 22) =      4.53598  eV     2   --> E    L_3       
     e( 23 - 23) =      4.83293  eV     1   --> A_1  L_1       
     e( 24 - 24) =      5.01722  eV     1   --> A_2  L_2       
     e( 25 - 26) =      5.13247  eV     2   --> E    L_3       
     e( 27 - 27) =      5.58381  eV     1   --> A_1  L_1       
     e( 28 - 29) =      5.84327  eV     2   --> E    L_3       
     e( 30 - 30) =      5.90061  eV     1   --> A_2  L_2       
     e( 31 - 32) =      6.03981  eV     2   --> E    L_3       
     e( 33 - 34) =      6.33800  eV     2   --> E    L_3       
     e( 35 - 35) =      6.41303  eV     1   --> A_1  L_1       
     e( 36 - 37) =      7.13553  eV     2   --> E    L_3       
     e( 38 - 38) =     11.80773  eV     1   --> A_1  L_1       
     e( 39 - 40) =     12.07578  eV     2   --> E    L_3       
     e( 41 - 41) =     12.13315  eV     1   --> A_1  L_1       
     e( 42 - 43) =     12.86739  eV     2   --> E    L_3       
     e( 44 - 44) =     12.98857  eV     1   --> A_1  L_1       
     e( 45 - 45) =     13.63906  eV     1   --> A_1  L_1       
     e( 46 - 46) =     15.47190  eV     1   --> A_1  L_1       
     e( 47 - 48) =     16.04757  eV     2   --> E    L_3       
     e( 49 - 49) =     16.56607  eV     1   --> A_1  L_1       
     e( 50 - 51) =     16.60567  eV     2   --> E    L_3       
     e( 52 - 52) =     17.04368  eV     1   --> A_1  L_1       
     e( 53 - 54) =     18.04522  eV     2   --> E    L_3       
     e( 55 - 55) =     18.16606  eV     1   --> A_1  L_1       
     e( 56 - 57) =     18.30818  eV     2   --> E    L_3       
     e( 58 - 58) =     18.47416  eV     1   --> A_2  L_2       
     e( 59 - 59) =     18.47880  eV     1   --> A_1  L_1       
     e( 60 - 61) =     18.73584  eV     2   --> E    L_3       
     e( 62 - 63) =     19.05212  eV     2   --> E    L_3       
     e( 64 - 64) =     19.46489  eV     1   --> A_1  L_1       

 **************************************************************************

 **************************************************************************

                    xk=(   0.00000,   0.00000,   0.37543  )

     Band symmetry, C_3v (3m)   point group:

     e(  1 -  1) =     -7.76331  eV     1   --> A_1  L_1       
     e(  2 -  2) =     -6.58350  eV     1   --> A_1  L_1       
     e(  3 -  4) =     -6.05957  eV     2   --> E    L_3       
     e(  5 -  5) =     -5.98825  eV     1   --> A_1  L_1       
     e(  6 -  7) =     -5.62147  eV     2   -->   ?
     e(  8 -  8) =     -5.62117  eV     1   -->   ?
     e(  9 - 10) =      1.04259  eV     2   --> E    L_3       
     e( 11 - 11) =      1.31449  eV     1   --> A_1  L_1       
     e( 12 - 12) =      1.45349  eV     1   --> A_1  L_1       
     e( 13 - 14) =      1.55858  eV     2   --> E    L_3       
     e( 15 - 16) =      1.93637  eV     2   --> E    L_3       
     e( 17 - 17) =      2.09534  eV     1   --> A_1  L_1       
     e( 18 - 18) =      2.46005  eV     1   --> A_1  L_1       
     e( 19 - 20) =      2.54243  eV     2   --> E    L_3       
     e( 21 - 22) =      4.65643  eV     2   --> E    L_3       
     e( 23 - 23) =      4.94439  eV     1   --> A_1  L_1       
     e( 24 - 24) =      5.05386  eV     1   --> A_2  L_2       
     e( 25 - 26) =      5.17299  eV     2   --> E    L_3       
     e( 27 - 27) =      5.42686  eV     1   --> A_1  L_1       
     e( 28 - 28) =      5.85289  eV     1   --> A_2  L_2       
     e( 29 - 30) =      5.86989  eV     2   --> E    L_3       
     e( 31 - 32) =      6.00603  eV     2   --> E    L_3       
     e( 33 - 34) =      6.33724  eV     2   --> E    L_3       
     e( 35 - 35) =      6.46661  eV     1   --> A_1  L_1       
     e( 36 - 37) =      7.12302  eV     2   --> E    L_3       
     e( 38 - 38) =     11.83794  eV     1   --> A_1  L_1       
     e( 39 - 40) =     12.04084  eV     2   --> E    L_3       
     e( 41 - 41) =     12.19776  eV     1   --> A_1  L_1       
     e( 42 - 43) =     12.84585  eV     2   --> E    L_3       
     e( 44 - 44) =     12.98167  eV     1   --> A_1  L_1       
     e( 45 - 45) =     13.63235  eV     1   --> A_1  L_1       
     e( 46 - 46) =     15.48498  eV     1   --> A_1  L_1       
     e( 47 - 48) =     15.99685  eV     2   --> E    L_3       
     e( 49 - 49) =     16.59984  eV     1   --> A_1  L_1       
     e( 50 - 51) =     16.68952  eV     2   --> E    L_3       
     e( 52 - 52) =     17.01135  eV     1   --> A_1  L_1       
     e( 53 - 54) =     17.99623  eV     2   --> E    L_3       
     e( 55 - 55) =     18.00645  eV     1   --> A_1  L_1       
     e( 56 - 57) =     18.27182  eV     2   --> E    L_3       
     e( 58 - 58) =     18.37245  eV     1   --> A_1  L_1       
     e( 59 - 59) =     18.61261  eV     1   --> A_2  L_2       
     e( 60 - 61) =     18.76361  eV     2   --> E    L_3       
     e( 62 - 63) =     19.08447  eV     2   --> E    L_3       
     e( 64 - 64) =     19.36914  eV     1   --> A_1  L_1       

 **************************************************************************

 **************************************************************************

                    xk=(   0.00000,   0.00000,   0.40671  )

     Band symmetry, C_3v (3m)   point group:

     e(  1 -  1) =     -7.70867  eV     1   --> A_1  L_1       
     e(  2 -  2) =     -6.66143  eV     1   --> A_1  L_1       
     e(  3 -  4) =     -6.03459  eV     2   --> E    L_3       
     e(  5 -  5) =     -5.97055  eV     1   --> A_1  L_1       
     e(  6 -  7) =     -5.64371  eV     2   --> E    L_3       
     e(  8 -  8) =     -5.63254  eV     1   --> A_1  L_1       
     e(  9 - 10) =      1.02635  eV     2   --> E    L_3       
     e( 11 - 11) =      1.29961  eV     1   --> A_1  L_1       
     e( 12 - 12) =      1.45650  eV     1   --> A_1  L_1       
     e( 13 - 14) =      1.53131  eV     2   --> E    L_3       
     e( 15 - 16) =      1.92208  eV     2   --> E    L_3       
     e( 17 - 17) =      2.03662  eV     1   --> A_1  L_1       
     e( 18 - 19) =      2.51203  eV     2   --> E    L_3       
     e( 20 - 20) =      2.57660  eV     1   --> A_1  L_1       
     e( 21 - 22) =      4.77812  eV     2   --> E    L_3       
     e( 23 - 23) =      5.02018  eV     1   --> A_1  L_1       
     e( 24 - 24) =      5.09305  eV     1   --> A_2  L_2       
     e( 25 - 26) =      5.21582  eV     2   --> E    L_3       
     e( 27 - 27) =      5.28687  eV     1   --> A_1  L_1       
     e( 28 - 28) =      5.80323  eV     1   --> A_2  L_2       
     e( 29 - 30) =      5.88184  eV     2   --> E    L_3       
     e( 31 - 32) =      5.97067  eV     2   --> E    L_3       
     e( 33 - 34) =      6.33681  eV     2   --> E    L_3       
     e( 35 - 35) =      6.51913  eV     1   --> A_1  L_1       
     e( 36 - 37) =      7.11165  eV     2   --> E    L_3       
     e( 38 - 38) =     11.84585  eV     1   --> A_1  L_1       
     e( 39 - 40) =     12.02215  eV     2   --> E    L_3       
     e( 41 - 41) =     12.29615  eV     1   --> A_1  L_1       
     e( 42 - 43) =     12.81401  eV     2   --> E    L_3       
     e( 44 - 44) =     12.96724  eV     1   --> A_1  L_1       
     e( 45 - 45) =     13.61714  eV     1   --> A_1  L_1       
     e( 46 - 46) =     15.49019  eV     1   --> A_1  L_1       
     e( 47 - 48) =     15.95339  eV     2   --> E    L_3       
     e( 49 - 49) =     16.63869  eV     1   --> A_1  L_1       
     e( 50 - 51) =     16.74213  eV     2   --> E    L_3       
     e( 52 - 52) =     16.98470  eV     1   --> A_1  L_1       
     e( 53 - 53) =     17.85770  eV     1   --> A_1  L_1       
     e( 54 - 55) =     17.95025  eV     2   --> E    L_3       
     e( 56 - 56) =     18.26215  eV     1   --> A_1  L_1       
     e( 57 - 58) =     18.27142  eV     2   --> E    L_3       
     e( 59 - 60) =     18.75087  eV     2   --> E    L_3       
     e( 61 - 61) =     18.75882  eV     1   --> A_2  L_2       
     e( 62 - 63) =     19.15075  eV     2   --> E    L_3       
     e( 64 - 64) =     19.29215  eV     1   --> A_1  L_1       

 **************************************************************************

 **************************************************************************

                    xk=(   0.00000,   0.00000,   0.43800  )

     Band symmetry, C_3v (3m)   point group:

     e(  1 -  1) =     -7.65050  eV     1   --> A_1  L_1       
     e(  2 -  2) =     -6.74088  eV     1   --> A_1  L_1       
     e(  3 -  4) =     -6.00854  eV     2   --> E    L_3       
     e(  5 -  5) =     -5.95280  eV     1   --> A_1  L_1       
     e(  6 -  7) =     -5.66726  eV     2   --> E    L_3       
     e(  8 -  8) =     -5.64438  eV     1   --> A_1  L_1       
     e(  9 - 10) =      1.01378  eV     2   --> E    L_3       
     e( 11 - 11) =      1.28248  eV     1   --> A_1  L_1       
     e( 12 - 12) =      1.46221  eV     1   --> A_1  L_1       
     e( 13 - 14) =      1.50266  eV     2   --> E    L_3       
     e( 15 - 16) =      1.90949  eV     2   --> E    L_3       
     e( 17 - 17) =      1.97234  eV     1   --> A_1  L_1       
     e( 18 - 19) =      2.48687  eV     2   --> E    L_3       
     e( 20 - 20) =      2.71830  eV     1   --> A_1  L_1       
     e( 21 - 22) =      4.89941  eV     2   --> E    L_3       
     e( 23 - 23) =      4.96024  eV     1   --> A_1  L_1       
     e( 24 - 24) =      5.13463  eV     1   --> A_2  L_2       
     e( 25 - 26) =      5.26072  eV     2   --> E    L_3       
     e( 27 - 27) =      5.26801  eV     1   --> A_1  L_1       
     e( 28 - 28) =      5.75203  eV     1   --> A_2  L_2       
     e( 29 - 30) =      5.87480  eV     2   --> E    L_3       
     e( 31 - 32) =      5.93752  eV     2   --> E    L_3       
     e( 33 - 34) =      6.33656  eV     2   --> E    L_3       
     e( 35 - 35) =      6.56442  eV     1   --> A_1  L_1       
     e( 36 - 37) =      7.10160  eV     2   --> E    L_3       
     e( 38 - 38) =     11.85384  eV     1   --> A_1  L_1       
     e( 39 - 40) =     12.02018  eV     2   --> E    L_3       
     e( 41 - 41) =     12.40173  eV     1   --> A_1  L_1       
     e( 42 - 43) =     12.77112  eV     2   --> E    L_3       
     e( 44 - 44) =     12.94705  eV     1   --> A_1  L_1       
     e( 45 - 45) =     13.59261  eV     1   --> A_1  L_1       
     e( 46 - 46) =     15.49839  eV     1   --> A_1  L_1       
     e( 47 - 48) =     15.92441  eV     2   --> E    L_3       
     e( 49 - 49) =     16.66832  eV     1   --> A_1  L_1       
     e( 50 - 51) =     16.75108  eV     2   --> E    L_3       
     e( 52 - 52) =     16.96244  eV     1   --> A_1  L_1       
     e( 53 - 53) =     17.72250  eV     1   --> A_1  L_1       
     e( 54 - 55) =     17.92879  eV     2   --> E    L_3       
     e( 56 - 56) =     18.16182  eV     1   --> A_1  L_1       
     e( 57 - 58) =     18.29311  eV     2   --> E    L_3       
     e( 59 - 60) =     18.71542  eV     2   --> E    L_3       
     e( 61 - 61) =     18.91178  eV     1   --> A_2  L_2       
     e( 62 - 63) =     19.21500  eV     2   --> E    L_3       
     e( 64 - 64) =     19.22881  eV     1   --> A_1  L_1       

 **************************************************************************

 **************************************************************************

                    xk=(   0.00000,   0.00000,   0.46928  )

     Band symmetry, C_3v (3m)   point group:

     e(  1 -  1) =     -7.58906  eV     1   --> A_1  L_1       
     e(  2 -  2) =     -6.82111  eV     1   --> A_1  L_1       
     e(  3 -  4) =     -5.98164  eV     2   --> E    L_3       
     e(  5 -  5) =     -5.93548  eV     1   --> A_1  L_1       
     e(  6 -  7) =     -5.69194  eV     2   --> E    L_3       
     e(  8 -  8) =     -5.65639  eV     1   --> A_1  L_1       
     e(  9 - 10) =      1.00473  eV     2   --> E    L_3       
     e( 11 - 11) =      1.26595  eV     1   --> A_1  L_1       
     e( 12 - 12) =      1.46945  eV     1   --> A_1  L_1       
     e( 13 - 14) =      1.47405  eV     2   --> E    L_3       
     e( 15 - 16) =      1.89888  eV     2   --> E    L_3       
     e( 17 - 17) =      1.91090  eV     1   --> A_1  L_1       
     e( 18 - 19) =      2.46659  eV     2   --> E    L_3       
     e( 20 - 20) =      2.87512  eV     1   --> A_1  L_1       
     e( 21 - 21) =      4.79387  eV     1   --> A_1  L_1       
     e( 22 - 23) =      5.01843  eV     2   --> E    L_3       
     e( 24 - 24) =      5.17836  eV     1   --> A_2  L_2       
     e( 25 - 26) =      5.30752  eV     2   --> E    L_3       
     e( 27 - 27) =      5.34208  eV     1   --> A_1  L_1       
     e( 28 - 28) =      5.69976  eV     1   --> A_2  L_2       
     e( 29 - 30) =      5.84779  eV     2   --> E    L_3       
     e( 31 - 32) =      5.90753  eV     2   --> E    L_3       
     e( 33 - 34) =      6.33666  eV     2   --> E    L_3       
     e( 35 - 35) =      6.59997  eV     1   --> A_1  L_1       
     e( 36 - 37) =      7.09296  eV     2   --> E    L_3       
     e( 38 - 38) =     11.87088  eV     1   --> A_1  L_1       
     e( 39 - 40) =     12.03466  eV     2   --> E    L_3       
     e( 41 - 41) =     12.49636  eV     1   --> A_1  L_1       
     e( 42 - 43) =     12.71737  eV     2   --> E    L_3       
     e( 44 - 44) =     12.92823  eV     1   --> A_1  L_1       
     e( 45 - 45) =     13.55866  eV     1   --> A_1  L_1       
     e( 46 - 46) =     15.51600  eV     1   --> A_1  L_1       
     e( 47 - 48) =     15.91296  eV     2   --> E    L_3       
     e( 49 - 49) =     16.67796  eV     1   --> A_1  L_1       
     e( 50 - 51) =     16.71697  eV     2   --> E    L_3       
     e( 52 - 52) =     16.94451  eV     1   --> A_1  L_1       
     e( 53 - 53) =     17.60024  eV     1   --> A_1  L_1       
     e( 54 - 55) =     17.93686  eV     2   --> E    L_3       
     e( 56 - 56) =     18.08536  eV     1   --> A_1  L_1       
     e( 57 - 58) =     18.32672  eV     2   --> E    L_3       
     e( 59 - 60) =     18.67437  eV     2   --> E    L_3       
     e( 61 - 61) =     19.07041  eV     1   --> A_2  L_2       
     e( 62 - 62) =     19.17501  eV     1   --> A_1  L_1       
     e( 63 - 64) =     19.23630  eV     2   --> E    L_3       

 **************************************************************************

 **************************************************************************

                    xk=(   0.00000,   0.00000,   0.50057  )

     Band symmetry, C_3v (3m)   point group:

     e(  1 -  1) =     -7.52474  eV     1   --> A_1  L_1       
     e(  2 -  2) =     -6.90133  eV     1   --> A_1  L_1       
     e(  3 -  4) =     -5.95417  eV     2   --> E    L_3       
     e(  5 -  5) =     -5.91921  eV     1   --> A_1  L_1       
     e(  6 -  7) =     -5.71752  eV     2   --> E    L_3       
     e(  8 -  8) =     -5.66811  eV     1   --> A_1  L_1       
     e(  9 - 10) =      0.99880  eV     2   --> E    L_3       
     e( 11 - 11) =      1.25157  eV     1   --> A_1  L_1       
     e( 12 - 13) =      1.44713  eV     2   --> E    L_3       
     e( 14 - 14) =      1.47756  eV     1   --> A_1  L_1       
     e( 15 - 15) =      1.85588  eV     1   --> A_1  L_1       
     e( 16 - 17) =      1.89034  eV     2   --> E    L_3       
     e( 18 - 19) =      2.45072  eV     2   --> E    L_3       
     e( 20 - 20) =      3.04232  eV     1   --> A_1  L_1       
     e( 21 - 21) =      4.60505  eV     1   --> A_1  L_1       
     e( 22 - 23) =      5.13272  eV     2   --> E    L_3       
     e( 24 - 24) =      5.22397  eV     1   --> A_2  L_2       
     e( 25 - 26) =      5.35623  eV     2   --> E    L_3       
     e( 27 - 27) =      5.42468  eV     1   --> A_1  L_1       
     e( 28 - 28) =      5.64688  eV     1   --> A_2  L_2       
     e( 29 - 30) =      5.80923  eV     2   --> E    L_3       
     e( 31 - 32) =      5.87308  eV     2   --> E    L_3       
     e( 33 - 34) =      6.33732  eV     2   --> E    L_3       
     e( 35 - 35) =      6.62534  eV     1   --> A_1  L_1       
     e( 36 - 37) =      7.08579  eV     2   --> E    L_3       
     e( 38 - 38) =     11.89865  eV     1   --> A_1  L_1       
     e( 39 - 40) =     12.06455  eV     2   --> E    L_3       
     e( 41 - 41) =     12.56068  eV     1   --> A_1  L_1       
     e( 42 - 43) =     12.65409  eV     2   --> E    L_3       
     e( 44 - 44) =     12.92681  eV     1   --> A_1  L_1       
     e( 45 - 45) =     13.51586  eV     1   --> A_1  L_1       
     e( 46 - 46) =     15.54470  eV     1   --> A_1  L_1       
     e( 47 - 48) =     15.91949  eV     2   --> E    L_3       
     e( 49 - 50) =     16.65132  eV     2   --> E    L_3       
     e( 51 - 51) =     16.66051  eV     1   --> A_1  L_1       
     e( 52 - 52) =     16.93693  eV     1   --> A_1  L_1       
     e( 53 - 53) =     17.48723  eV     1   --> A_1  L_1       
     e( 54 - 55) =     17.96644  eV     2   --> E    L_3       
     e( 56 - 56) =     18.04098  eV     1   --> A_1  L_1       
     e( 57 - 58) =     18.36088  eV     2   --> E    L_3       
     e( 59 - 60) =     18.64193  eV     2   --> E    L_3       
     e( 61 - 61) =     19.12858  eV     1   --> A_1  L_1       
     e( 62 - 63) =     19.21439  eV     2   --> E    L_3       
     e( 64 - 64) =     19.23353  eV     1   --> A_2  L_2       

 **************************************************************************

 **************************************************************************

                    xk=(   0.00000,   0.00000,   0.53186  )

     Band symmetry, C_3v (3m)   point group:

     e(  1 -  1) =     -7.45817  eV     1   --> A_1  L_1       
     e(  2 -  2) =     -6.98061  eV     1   --> A_1  L_1       
     e(  3 -  4) =     -5.92655  eV     2   --> E    L_3       
     e(  5 -  5) =     -5.90477  eV     1   --> A_1  L_1       
     e(  6 -  7) =     -5.74364  eV     2   --> E    L_3       
     e(  8 -  8) =     -5.67887  eV     1   --> A_1  L_1       
     e(  9 - 10) =      0.99539  eV     2   --> E    L_3       
     e( 11 - 11) =      1.24011  eV     1   --> A_1  L_1       
     e( 12 - 13) =      1.42366  eV     2   --> E    L_3       
     e( 14 - 14) =      1.48593  eV     1   --> A_1  L_1       
     e( 15 - 15) =      1.80950  eV     1   --> A_1  L_1       
     e( 16 - 17) =      1.88383  eV     2   --> E    L_3       
     e( 18 - 19) =      2.43886  eV     2   --> E    L_3       
     e( 20 - 20) =      3.21661  eV     1   --> A_1  L_1       
     e( 21 - 21) =      4.41137  eV     1   --> A_1  L_1       
     e( 22 - 23) =      5.23829  eV     2   --> E    L_3       
     e( 24 - 24) =      5.27105  eV     1   --> A_2  L_2       
     e( 25 - 26) =      5.40756  eV     2   --> E    L_3       
     e( 27 - 27) =      5.49735  eV     1   --> A_1  L_1       
     e( 28 - 28) =      5.59396  eV     1   --> A_2  L_2       
     e( 29 - 30) =      5.76715  eV     2   --> E    L_3       
     e( 31 - 32) =      5.82851  eV     2   --> E    L_3       
     e( 33 - 34) =      6.33848  eV     2   --> E    L_3       
     e( 35 - 35) =      6.64158  eV     1   --> A_1  L_1       
     e( 36 - 37) =      7.08011  eV     2   --> E    L_3       
     e( 38 - 38) =     11.93479  eV     1   --> A_1  L_1       
     e( 39 - 40) =     12.10781  eV     2   --> E    L_3       
     e( 41 - 41) =     12.57858  eV     1   --> A_1  L_1       
     e( 42 - 43) =     12.58382  eV     2   --> E    L_3       
     e( 44 - 44) =     12.95981  eV     1   --> A_1  L_1       
     e( 45 - 45) =     13.46550  eV     1   --> A_1  L_1       
     e( 46 - 46) =     15.58180  eV     1   --> A_1  L_1       
     e( 47 - 48) =     15.94204  eV     2   --> E    L_3       
     e( 49 - 50) =     16.56981  eV     2   --> E    L_3       
     e( 51 - 51) =     16.61771  eV     1   --> A_1  L_1       
     e( 52 - 52) =     16.94777  eV     1   --> A_1  L_1       
     e( 53 - 53) =     17.38060  eV     1   --> A_1  L_1       
     e( 54 - 55) =     18.00605  eV     2   --> E    L_3       
     e( 56 - 56) =     18.02603  eV     1   --> A_1  L_1       
     e( 57 - 58) =     18.37912  eV     2   --> E    L_3       
     e( 59 - 60) =     18.63386  eV     2   --> E    L_3       
     e( 61 - 61) =     19.08929  eV     1   --> A_1  L_1       
     e( 62 - 63) =     19.17264  eV     2   --> E    L_3       
     e( 64 - 64) =     19.39976  eV     1   --> A_2  L_2       

 **************************************************************************

 **************************************************************************

                    xk=(   0.00000,   0.00000,   0.56314  )

     Band symmetry, C_3v (3m)   point group:

     e(  1 -  1) =     -7.39071  eV     1   --> A_1  L_1       
     e(  2 -  2) =     -7.05733  eV     1   --> A_1  L_1       
     e(  3 -  4) =     -5.89954  eV     2   --> E    L_3       
     e(  5 -  5) =     -5.89317  eV     1   --> A_1  L_1       
     e(  6 -  7) =     -5.76954  eV     2   --> E    L_3       
     e(  8 -  8) =     -5.68777  eV     1   --> A_1  L_1       
     e(  9 - 10) =      0.99377  eV     2   --> E    L_3       
     e( 11 - 11) =      1.23189  eV     1   --> A_1  L_1       
     e( 12 - 13) =      1.40536  eV     2   --> E    L_3       
     e( 14 - 14) =      1.49369  eV     1   --> A_1  L_1       
     e( 15 - 15) =      1.77379  eV     1   --> A_1  L_1       
     e( 16 - 17) =      1.87927  eV     2   --> E    L_3       
     e( 18 - 19) =      2.43064  eV     2   --> E    L_3       
     e( 20 - 20) =      3.39417  eV     1   --> A_1  L_1       
     e( 21 - 21) =      4.21935  eV     1   --> A_1  L_1       
     e( 22 - 22) =      5.31882  eV     1   --> A_2  L_2       
     e( 23 - 24) =      5.32740  eV     2   --> E    L_3       
     e( 25 - 26) =      5.46413  eV     2   --> E    L_3       
     e( 27 - 27) =      5.54193  eV     1   --> A_2  L_2       
     e( 28 - 28) =      5.55349  eV     1   --> A_1  L_1       
     e( 29 - 30) =      5.72556  eV     2   --> E    L_3       
     e( 31 - 32) =      5.77454  eV     2   --> E    L_3       
     e( 33 - 34) =      6.33979  eV     2   --> E    L_3       
     e( 35 - 35) =      6.65063  eV     1   --> A_1  L_1       
     e( 36 - 37) =      7.07599  eV     2   --> E    L_3       
     e( 38 - 38) =     11.97339  eV     1   --> A_1  L_1       
     e( 39 - 40) =     12.16079  eV     2   --> E    L_3       
     e( 41 - 42) =     12.51088  eV     2   --> E    L_3       
     e( 43 - 43) =     12.56049  eV     1   --> A_1  L_1       
     e( 44 - 44) =     13.02007  eV     1   --> A_1  L_1       
     e( 45 - 45) =     13.41047  eV     1   --> A_1  L_1       
     e( 46 - 46) =     15.62060  eV     1   --> A_1  L_1       
     e( 47 - 48) =     15.97538  eV     2   --> E    L_3       
     e( 49 - 50) =     16.48815  eV     2   --> E    L_3       
     e( 51 - 51) =     16.56447  eV     1   --> A_1  L_1       
     e( 52 - 52) =     16.97819  eV     1   --> A_1  L_1       
     e( 53 - 53) =     17.28126  eV     1   --> A_1  L_1       
     e( 54 - 54) =     18.02914  eV     1   --> A_1  L_1       
     e( 55 - 56) =     18.04586  eV     2   --> E    L_3       
     e( 57 - 58) =     18.37276  eV     2   --> E    L_3       
     e( 59 - 60) =     18.65519  eV     2   --> E    L_3       
     e( 61 - 61) =     19.05849  eV     1   --> A_1  L_1       
     e( 62 - 63) =     19.12627  eV     2   --> E    L_3       
     e( 64 - 64) =     19.56720  eV     1   --> A_2  L_2       

 **************************************************************************

 **************************************************************************

                    xk=(   0.00000,   0.00000,   0.59443  )

     Band symmetry, C_3v (3m)   point group:

     e(  1 -  1) =     -7.32695  eV     1   --> A_1  L_1       
     e(  2 -  2) =     -7.12670  eV     1   --> A_1  L_1       
     e(  3 -  3) =     -5.88553  eV     1   --> A_1  L_1       
     e(  4 -  5) =     -5.87538  eV     2   --> E    L_3       
     e(  6 -  7) =     -5.79304  eV     2   --> E    L_3       
     e(  8 -  8) =     -5.69376  eV     1   --> A_1  L_1       
     e(  9 - 10) =      0.99319  eV     2   --> E    L_3       
     e( 11 - 11) =      1.22696  eV     1   --> A_1  L_1       
     e( 12 - 13) =      1.39369  eV     2   --> E    L_3       
     e( 14 - 14) =      1.49943  eV     1   --> A_1  L_1       
     e( 15 - 15) =      1.75095  eV     1   --> A_1  L_1       
     e( 16 - 17) =      1.87659  eV     2   --> E    L_3       
     e( 18 - 19) =      2.42582  eV     2   --> E    L_3       
     e( 20 - 20) =      3.56508  eV     1   --> A_1  L_1       
     e( 21 - 21) =      4.03963  eV     1   --> A_1  L_1       
     e( 22 - 22) =      5.36467  eV     1   --> A_2  L_2       
     e( 23 - 24) =      5.38746  eV     2   --> E    L_3       
     e( 25 - 25) =      5.49349  eV     1   --> A_2  L_2       
     e( 26 - 27) =      5.52877  eV     2   --> E    L_3       
     e( 28 - 28) =      5.58896  eV     1   --> A_1  L_1       
     e( 29 - 30) =      5.68219  eV     2   --> E    L_3       
     e( 31 - 32) =      5.72319  eV     2   --> E    L_3       
     e( 33 - 34) =      6.34081  eV     2   --> E    L_3       
     e( 35 - 35) =      6.65480  eV     1   --> A_1  L_1       
     e( 36 - 37) =      7.07347  eV     2   --> E    L_3       
     e( 38 - 38) =     12.00472  eV     1   --> A_1  L_1       
     e( 39 - 40) =     12.21522  eV     2   --> E    L_3       
     e( 41 - 42) =     12.44418  eV     2   --> E    L_3       
     e( 43 - 43) =     12.53421  eV     1   --> A_1  L_1       
     e( 44 - 44) =     13.08185  eV     1   --> A_1  L_1       
     e( 45 - 45) =     13.35888  eV     1   --> A_1  L_1       
     e( 46 - 46) =     15.65111  eV     1   --> A_1  L_1       
     e( 47 - 48) =     16.00863  eV     2   --> E    L_3       
     e( 49 - 50) =     16.42371  eV     2   --> E    L_3       
     e( 51 - 51) =     16.52106  eV     1   --> A_1  L_1       
     e( 52 - 52) =     17.02349  eV     1   --> A_1  L_1       
     e( 53 - 53) =     17.19424  eV     1   --> A_1  L_1       
     e( 54 - 54) =     18.03729  eV     1   --> A_1  L_1       
     e( 55 - 56) =     18.07686  eV     2   --> E    L_3       
     e( 57 - 58) =     18.35546  eV     2   --> E    L_3       
     e( 59 - 60) =     18.68642  eV     2   --> E    L_3       
     e( 61 - 61) =     19.03850  eV     1   --> A_1  L_1       
     e( 62 - 63) =     19.08778  eV     2   --> E    L_3       
     e( 64 - 64) =     19.73122  eV     1   --> A_2  L_2       

 **************************************************************************

 **************************************************************************

                    xk=(   0.00000,   0.00000,   0.62571  )

     Band symmetry, C_3v (3m)   point group:

     e(  1 -  1) =     -7.29155  eV     1   --> A_1  L_1       
     e(  2 -  2) =     -7.16399  eV     1   --> A_1  L_1       
     e(  3 -  3) =     -5.88284  eV     1   --> A_1  L_1       
     e(  4 -  5) =     -5.86315  eV     2   --> E    L_3       
     e(  6 -  7) =     -5.80505  eV     2   --> E    L_3       
     e(  8 -  8) =     -5.69589  eV     1   --> A_1  L_1       
     e(  9 - 10) =      0.99307  eV     2   --> E    L_3       
     e( 11 - 11) =      1.22533  eV     1   --> A_1  L_1       
     e( 12 - 13) =      1.38968  eV     2   --> E    L_3       
     e( 14 - 14) =      1.50160  eV     1   --> A_1  L_1       
     e( 15 - 15) =      1.74304  eV     1   --> A_1  L_1       
     e( 16 - 17) =      1.87570  eV     2   --> E    L_3       
     e( 18 - 19) =      2.42423  eV     2   --> E    L_3       
     e( 20 - 20) =      3.66668  eV     1   --> A_1  L_1       
     e( 21 - 21) =      3.93508  eV     1   --> A_1  L_1       
     e( 22 - 22) =      5.39172  eV     1   --> A_2  L_2       
     e( 23 - 24) =      5.40844  eV     2   --> E    L_3       
     e( 25 - 25) =      5.46556  eV     1   --> A_2  L_2       
     e( 26 - 27) =      5.57793  eV     2   --> E    L_3       
     e( 28 - 28) =      5.60111  eV     1   --> A_1  L_1       
     e( 29 - 30) =      5.64152  eV     2   --> E    L_3       
     e( 31 - 32) =      5.70370  eV     2   --> E    L_3       
     e( 33 - 34) =      6.34120  eV     2   --> E    L_3       
     e( 35 - 35) =      6.65595  eV     1   --> A_1  L_1       
     e( 36 - 37) =      7.07263  eV     2   --> E    L_3       
     e( 38 - 38) =     12.01713  eV     1   --> A_1  L_1       
     e( 39 - 40) =     12.24442  eV     2   --> E    L_3       
     e( 41 - 42) =     12.41083  eV     2   --> E    L_3       
     e( 43 - 43) =     12.52245  eV     1   --> A_1  L_1       
     e( 44 - 44) =     13.11117  eV     1   --> A_1  L_1       
     e( 45 - 45) =     13.33396  eV     1   --> A_1  L_1       
     e( 46 - 46) =     15.66287  eV     1   --> A_1  L_1       
     e( 47 - 48) =     16.02365  eV     2   --> E    L_3       
     e( 49 - 50) =     16.39795  eV     2   --> E    L_3       
     e( 51 - 51) =     16.50432  eV     1   --> A_1  L_1       
     e( 52 - 52) =     17.05887  eV     1   --> A_1  L_1       
     e( 53 - 53) =     17.14486  eV     1   --> A_1  L_1       
     e( 54 - 54) =     18.04112  eV     1   --> A_1  L_1       
     e( 55 - 56) =     18.08905  eV     2   --> E    L_3       
     e( 57 - 58) =     18.34675  eV     2   --> E    L_3       
     e( 59 - 60) =     18.70104  eV     2   --> E    L_3       
     e( 61 - 61) =     19.03153  eV     1   --> A_1  L_1       
     e( 62 - 63) =     19.07208  eV     2   --> E    L_3       
     e( 64 - 64) =     19.84452  eV     1   --> A_2  L_2       

 **************************************************************************

 **************************************************************************

                    xk=(   0.03333,  -0.00000,   0.62571  )

     point group C_1 (1)    
     there are  1 classes
     the character table:

       E    
A      1.00

     the symmetry operations in each class and the name of the first element:

     E        1
                                                                 

     Band symmetry, C_1 (1)     point group:

     e(  1 -  1) =     -7.28929  eV     1   --> A              
     e(  2 -  2) =     -7.16183  eV     1   --> A              
     e(  3 -  3) =     -5.88512  eV     1   --> A              
     e(  4 -  4) =     -5.86573  eV     1   --> A              
     e(  5 -  5) =     -5.86338  eV     1   --> A              
     e(  6 -  6) =     -5.80804  eV     1   --> A              
     e(  7 -  7) =     -5.80516  eV     1   --> A              
     e(  8 -  8) =     -5.69584  eV     1   --> A              
     e(  9 -  9) =      0.99589  eV     1   --> A              
     e( 10 - 10) =      0.99732  eV     1   --> A              
     e( 11 - 11) =      1.22941  eV     1   --> A              
     e( 12 - 12) =      1.38987  eV     1   --> A              
     e( 13 - 13) =      1.39087  eV     1   --> A              
     e( 14 - 14) =      1.50227  eV     1   --> A              
     e( 15 - 15) =      1.74268  eV     1   --> A              
     e( 16 - 16) =      1.87820  eV     1   --> A              
     e( 17 - 17) =      1.88711  eV     1   --> A              
     e( 18 - 18) =      2.42503  eV     1   --> A              
     e( 19 - 19) =      2.42533  eV     1   --> A              
     e( 20 - 20) =      3.66653  eV     1   --> A              
     e( 21 - 21) =      3.93406  eV     1   --> A              
     e( 22 - 22) =      5.36370  eV     1   --> A              
     e( 23 - 23) =      5.38826  eV     1   --> A              
     e( 24 - 24) =      5.40673  eV     1   --> A              
     e( 25 - 25) =      5.45609  eV     1   --> A              
     e( 26 - 26) =      5.56205  eV     1   --> A              
     e( 27 - 27) =      5.57999  eV     1   --> A              
     e( 28 - 28) =      5.59683  eV     1   --> A              
     e( 29 - 29) =      5.65393  eV     1   --> A              
     e( 30 - 30) =      5.66131  eV     1   --> A              
     e( 31 - 31) =      5.70619  eV     1   --> A              
     e( 32 - 32) =      5.71392  eV     1   --> A              
     e( 33 - 33) =      6.33317  eV     1   --> A              
     e( 34 - 34) =      6.33918  eV     1   --> A              
     e( 35 - 35) =      6.65157  eV     1   --> A              
     e( 36 - 36) =      7.06989  eV     1   --> A              
     e( 37 - 37) =      7.07056  eV     1   --> A              
     e( 38 - 38) =     12.02499  eV     1   --> A              
     e( 39 - 39) =     12.25054  eV     1   --> A              
     e( 40 - 40) =     12.25355  eV     1   --> A              
     e( 41 - 41) =     12.41625  eV     1   --> A              
     e( 42 - 42) =     12.41937  eV     1   --> A              
     e( 43 - 43) =     12.52958  eV     1   --> A              
     e( 44 - 44) =     13.11933  eV     1   --> A              
     e( 45 - 45) =     13.34176  eV     1   --> A              
     e( 46 - 46) =     15.66795  eV     1   --> A              
     e( 47 - 47) =     16.02723  eV     1   --> A              
     e( 48 - 48) =     16.02826  eV     1   --> A              
     e( 49 - 49) =     16.39257  eV     1   --> A              
     e( 50 - 50) =     16.39993  eV     1   --> A              
     e( 51 - 51) =     16.51548  eV     1   --> A              
     e( 52 - 52) =     17.04618  eV     1   --> A              
     e( 53 - 53) =     17.12497  eV     1   --> A              
     e( 54 - 54) =     18.01459  eV     1   --> A              
     e( 55 - 55) =     18.09180  eV     1   --> A              
     e( 56 - 56) =     18.11200  eV     1   --> A              
     e( 57 - 57) =     18.34047  eV     1   --> A              
     e( 58 - 58) =     18.34670  eV     1   --> A              
     e( 59 - 59) =     18.68810  eV     1   --> A              
     e( 60 - 60) =     18.69601  eV     1   --> A              
     e( 61 - 61) =     19.01132  eV     1   --> A              
     e( 62 - 62) =     19.06760  eV     1   --> A              
     e( 63 - 63) =     19.08322  eV     1   --> A              
     e( 64 - 64) =     19.85543  eV     1   --> A              

 **************************************************************************

 **************************************************************************

                    xk=(   0.06667,  -0.00000,   0.62571  )

     Band symmetry, C_1 (1)     point group:

     e(  1 -  1) =     -7.28251  eV     1   --> A              
     e(  2 -  2) =     -7.15535  eV     1   --> A              
     e(  3 -  3) =     -5.89251  eV     1   --> A              
     e(  4 -  4) =     -5.87337  eV     1   --> A              
     e(  5 -  5) =     -5.86428  eV     1   --> A              
     e(  6 -  6) =     -5.81635  eV     1   --> A              
     e(  7 -  7) =     -5.80528  eV     1   --> A              
     e(  8 -  8) =     -5.69583  eV     1   --> A              
     e(  9 -  9) =      1.00423  eV     1   --> A              
     e( 10 - 10) =      1.00991  eV     1   --> A              
     e( 11 - 11) =      1.24134  eV     1   --> A              
     e( 12 - 12) =      1.39052  eV     1   --> A              
     e( 13 - 13) =      1.39442  eV     1   --> A              
     e( 14 - 14) =      1.50446  eV     1   --> A              
     e( 15 - 15) =      1.74364  eV     1   --> A              
     e( 16 - 16) =      1.88598  eV     1   --> A              
     e( 17 - 17) =      1.91872  eV     1   --> A              
     e( 18 - 18) =      2.42743  eV     1   --> A              
     e( 19 - 19) =      2.42865  eV     1   --> A              
     e( 20 - 20) =      3.66601  eV     1   --> A              
     e( 21 - 21) =      3.93093  eV     1   --> A              
     e( 22 - 22) =      5.29844  eV     1   --> A              
     e( 23 - 23) =      5.34009  eV     1   --> A              
     e( 24 - 24) =      5.38277  eV     1   --> A              
     e( 25 - 25) =      5.43691  eV     1   --> A              
     e( 26 - 26) =      5.53409  eV     1   --> A              
     e( 27 - 27) =      5.57550  eV     1   --> A              
     e( 28 - 28) =      5.59401  eV     1   --> A              
     e( 29 - 29) =      5.67772  eV     1   --> A              
     e( 30 - 30) =      5.69627  eV     1   --> A              
     e( 31 - 31) =      5.71731  eV     1   --> A              
     e( 32 - 32) =      5.73915  eV     1   --> A              
     e( 33 - 33) =      6.30949  eV     1   --> A              
     e( 34 - 34) =      6.33303  eV     1   --> A              
     e( 35 - 35) =      6.63767  eV     1   --> A              
     e( 36 - 36) =      7.06225  eV     1   --> A              
     e( 37 - 37) =      7.06444  eV     1   --> A              
     e( 38 - 38) =     12.04819  eV     1   --> A              
     e( 39 - 39) =     12.26881  eV     1   --> A              
     e( 40 - 40) =     12.28082  eV     1   --> A              
     e( 41 - 41) =     12.43248  eV     1   --> A              
     e( 42 - 42) =     12.44427  eV     1   --> A              
     e( 43 - 43) =     12.55107  eV     1   --> A              
     e( 44 - 44) =     13.14338  eV     1   --> A              
     e( 45 - 45) =     13.36487  eV     1   --> A              
     e( 46 - 46) =     15.68300  eV     1   --> A              
     e( 47 - 47) =     16.03783  eV     1   --> A              
     e( 48 - 48) =     16.04173  eV     1   --> A              
     e( 49 - 49) =     16.38123  eV     1   --> A              
     e( 50 - 50) =     16.40539  eV     1   --> A              
     e( 51 - 51) =     16.54331  eV     1   --> A              
     e( 52 - 52) =     17.00796  eV     1   --> A              
     e( 53 - 53) =     17.07055  eV     1   --> A              
     e( 54 - 54) =     17.96781  eV     1   --> A              
     e( 55 - 55) =     18.09848  eV     1   --> A              
     e( 56 - 56) =     18.14473  eV     1   --> A              
     e( 57 - 57) =     18.32217  eV     1   --> A              
     e( 58 - 58) =     18.34534  eV     1   --> A              
     e( 59 - 59) =     18.65116  eV     1   --> A              
     e( 60 - 60) =     18.68219  eV     1   --> A              
     e( 61 - 61) =     18.97268  eV     1   --> A              
     e( 62 - 62) =     19.05825  eV     1   --> A              
     e( 63 - 63) =     19.09805  eV     1   --> A              
     e( 64 - 64) =     19.88421  eV     1   --> A              

 **************************************************************************

 **************************************************************************

                    xk=(   0.10000,  -0.00000,   0.62571  )

     Band symmetry, C_1 (1)     point group:

     e(  1 -  1) =     -7.27125  eV     1   --> A              
     e(  2 -  2) =     -7.14458  eV     1   --> A              
     e(  3 -  3) =     -5.90584  eV     1   --> A              
     e(  4 -  4) =     -5.88582  eV     1   --> A              
     e(  5 -  5) =     -5.86738  eV     1   --> A              
     e(  6 -  6) =     -5.82773  eV     1   --> A              
     e(  7 -  7) =     -5.80484  eV     1   --> A              
     e(  8 -  8) =     -5.69606  eV     1   --> A              
     e(  9 -  9) =      1.01786  eV     1   --> A              
     e( 10 - 10) =      1.03039  eV     1   --> A              
     e( 11 - 11) =      1.25996  eV     1   --> A              
     e( 12 - 12) =      1.39204  eV     1   --> A              
     e( 13 - 13) =      1.40037  eV     1   --> A              
     e( 14 - 14) =      1.50893  eV     1   --> A              
     e( 15 - 15) =      1.74873  eV     1   --> A              
     e( 16 - 16) =      1.89990  eV     1   --> A              
     e( 17 - 17) =      1.96605  eV     1   --> A              
     e( 18 - 18) =      2.43159  eV     1   --> A              
     e( 19 - 19) =      2.43432  eV     1   --> A              
     e( 20 - 20) =      3.66485  eV     1   --> A              
     e( 21 - 21) =      3.92545  eV     1   --> A              
     e( 22 - 22) =      5.20568  eV     1   --> A              
     e( 23 - 23) =      5.27729  eV     1   --> A              
     e( 24 - 24) =      5.34600  eV     1   --> A              
     e( 25 - 25) =      5.40525  eV     1   --> A              
     e( 26 - 26) =      5.50007  eV     1   --> A              
     e( 27 - 27) =      5.56071  eV     1   --> A              
     e( 28 - 28) =      5.60296  eV     1   --> A              
     e( 29 - 29) =      5.70253  eV     1   --> A              
     e( 30 - 30) =      5.71652  eV     1   --> A              
     e( 31 - 31) =      5.74272  eV     1   --> A              
     e( 32 - 32) =      5.77517  eV     1   --> A              
     e( 33 - 33) =      6.27146  eV     1   --> A              
     e( 34 - 34) =      6.32276  eV     1   --> A              
     e( 35 - 35) =      6.61238  eV     1   --> A              
     e( 36 - 36) =      7.05070  eV     1   --> A              
     e( 37 - 37) =      7.05536  eV     1   --> A              
     e( 38 - 38) =     12.08572  eV     1   --> A              
     e( 39 - 39) =     12.29910  eV     1   --> A              
     e( 40 - 40) =     12.32604  eV     1   --> A              
     e( 41 - 41) =     12.45954  eV     1   --> A              
     e( 42 - 42) =     12.48361  eV     1   --> A              
     e( 43 - 43) =     12.58725  eV     1   --> A              
     e( 44 - 44) =     13.18202  eV     1   --> A              
     e( 45 - 45) =     13.40241  eV     1   --> A              
     e( 46 - 46) =     15.70741  eV     1   --> A              
     e( 47 - 47) =     16.05495  eV     1   --> A              
     e( 48 - 48) =     16.06295  eV     1   --> A              
     e( 49 - 49) =     16.36953  eV     1   --> A              
     e( 50 - 50) =     16.41286  eV     1   --> A              
     e( 51 - 51) =     16.57905  eV     1   --> A              
     e( 52 - 52) =     16.94302  eV     1   --> A              
     e( 53 - 53) =     16.99618  eV     1   --> A              
     e( 54 - 54) =     17.91104  eV     1   --> A              
     e( 55 - 55) =     18.10338  eV     1   --> A              
     e( 56 - 56) =     18.17001  eV     1   --> A              
     e( 57 - 57) =     18.29415  eV     1   --> A              
     e( 58 - 58) =     18.34020  eV     1   --> A              
     e( 59 - 59) =     18.59817  eV     1   --> A              
[...]
     e( 31 - 31) =      5.83398  eV     1   --> A'             
     e( 32 - 32) =      5.85749  eV     1   --> A''            
     e( 33 - 33) =      6.00630  eV     1   --> A'             
     e( 34 - 34) =      6.03374  eV     1   --> A''            
     e( 35 - 35) =      6.18609  eV     1   --> A''            
     e( 36 - 36) =      6.79524  eV     1   --> A''            
     e( 37 - 37) =      6.99720  eV     1   --> A'             
     e( 38 - 38) =     12.91621  eV     1   --> A'             
     e( 39 - 39) =     13.11877  eV     1   --> A'             
     e( 40 - 40) =     13.48048  eV     1   --> A'             
     e( 41 - 41) =     13.51608  eV     1   --> A''            
     e( 42 - 42) =     13.61118  eV     1   --> A'             
     e( 43 - 43) =     13.74264  eV     1   --> A''            
     e( 44 - 44) =     13.85544  eV     1   --> A'             
     e( 45 - 45) =     14.05590  eV     1   --> A'             
     e( 46 - 46) =     15.61052  eV     1   --> A'             
     e( 47 - 47) =     15.62677  eV     1   --> A''            
     e( 48 - 48) =     15.72168  eV     1   --> A'             
     e( 49 - 49) =     15.93001  eV     1   --> A'             
     e( 50 - 50) =     16.13474  eV     1   --> A''            
     e( 51 - 51) =     16.28736  eV     1   --> A'             
     e( 52 - 52) =     16.51070  eV     1   --> A'             
     e( 53 - 53) =     16.92571  eV     1   --> A'             
     e( 54 - 54) =     17.58173  eV     1   --> A'             
     e( 55 - 55) =     18.01627  eV     1   --> A'             
     e( 56 - 56) =     18.06723  eV     1   --> A''            
     e( 57 - 57) =     18.26825  eV     1   --> A'             
     e( 58 - 58) =     18.42240  eV     1   --> A'             
     e( 59 - 59) =     18.48809  eV     1   --> A''            
     e( 60 - 60) =     18.95970  eV     1   --> A'             
     e( 61 - 61) =     19.14767  eV     1   --> A'             
     e( 62 - 62) =     19.30118  eV     1   --> A''            
     e( 63 - 63) =     19.48131  eV     1   --> A''            
     e( 64 - 64) =     19.64289  eV     1   --> A''            

 **************************************************************************

 **************************************************************************

                    xk=(   0.50000,   0.28868,   0.53186  )

     Band symmetry, C_s (m)     point group:

     e(  1 -  1) =     -6.89173  eV     1   --> A'             
     e(  2 -  2) =     -6.75257  eV     1   --> A'             
     e(  3 -  3) =     -6.48272  eV     1   --> A'             
     e(  4 -  4) =     -6.34554  eV     1   --> A'             
     e(  5 -  5) =     -5.96500  eV     1   --> A''            
     e(  6 -  6) =     -5.92053  eV     1   --> A'             
     e(  7 -  7) =     -5.74923  eV     1   --> A''            
     e(  8 -  8) =     -5.68168  eV     1   --> A'             
     e(  9 -  9) =      1.39269  eV     1   --> A''            
     e( 10 - 10) =      1.39322  eV     1   --> A'             
     e( 11 - 11) =      1.42988  eV     1   --> A'             
     e( 12 - 12) =      1.47304  eV     1   --> A''            
     e( 13 - 13) =      1.54276  eV     1   --> A'             
     e( 14 - 14) =      2.05350  eV     1   --> A'             
     e( 15 - 15) =      2.37899  eV     1   --> A''            
     e( 16 - 16) =      2.38509  eV     1   --> A'             
     e( 17 - 17) =      2.66820  eV     1   --> A''            
     e( 18 - 18) =      2.87538  eV     1   --> A'             
     e( 19 - 19) =      2.97230  eV     1   --> A'             
     e( 20 - 20) =      3.38453  eV     1   --> A'             
     e( 21 - 21) =      3.59577  eV     1   --> A'             
     e( 22 - 22) =      3.90595  eV     1   --> A''            
     e( 23 - 23) =      4.08680  eV     1   --> A'             
     e( 24 - 24) =      4.35230  eV     1   --> A''            
     e( 25 - 25) =      4.58381  eV     1   --> A'             
     e( 26 - 26) =      4.99546  eV     1   --> A'             
     e( 27 - 27) =      5.20090  eV     1   --> A'             
     e( 28 - 28) =      5.60250  eV     1   --> A''            
     e( 29 - 29) =      5.70167  eV     1   --> A'             
     e( 30 - 30) =      5.71970  eV     1   --> A''            
     e( 31 - 31) =      5.83198  eV     1   --> A'             
     e( 32 - 32) =      5.87220  eV     1   --> A''            
     e( 33 - 33) =      5.96456  eV     1   --> A'             
     e( 34 - 34) =      5.99834  eV     1   --> A''            
     e( 35 - 35) =      6.14975  eV     1   --> A''            
     e( 36 - 36) =      6.77795  eV     1   --> A''            
     e( 37 - 37) =      7.00715  eV     1   --> A'             
     e( 38 - 38) =     12.96489  eV     1   --> A'             
     e( 39 - 39) =     13.19142  eV     1   --> A'             
     e( 40 - 40) =     13.48141  eV     1   --> A'             
     e( 41 - 41) =     13.54039  eV     1   --> A''            
     e( 42 - 42) =     13.56588  eV     1   --> A'             
     e( 43 - 43) =     13.70310  eV     1   --> A''            
     e( 44 - 44) =     13.76284  eV     1   --> A'             
     e( 45 - 45) =     13.99568  eV     1   --> A'             
     e( 46 - 46) =     15.65568  eV     1   --> A''            
     e( 47 - 47) =     15.67103  eV     1   --> A'             
     e( 48 - 48) =     15.76761  eV     1   --> A'             
     e( 49 - 49) =     15.95078  eV     1   --> A'             
     e( 50 - 50) =     16.08732  eV     1   --> A''            
     e( 51 - 51) =     16.26897  eV     1   --> A'             
     e( 52 - 52) =     16.51125  eV     1   --> A'             
     e( 53 - 53) =     16.85684  eV     1   --> A'             
     e( 54 - 54) =     17.58304  eV     1   --> A'             
     e( 55 - 55) =     18.05648  eV     1   --> A'             
     e( 56 - 56) =     18.07742  eV     1   --> A''            
     e( 57 - 57) =     18.28671  eV     1   --> A'             
     e( 58 - 58) =     18.39705  eV     1   --> A'             
     e( 59 - 59) =     18.49613  eV     1   --> A''            
     e( 60 - 60) =     18.88063  eV     1   --> A'             
     e( 61 - 61) =     19.14871  eV     1   --> A'             
     e( 62 - 62) =     19.37619  eV     1   --> A''            
     e( 63 - 63) =     19.52174  eV     1   --> A''            
     e( 64 - 64) =     19.68770  eV     1   --> A''            

 **************************************************************************

 **************************************************************************

                    xk=(   0.50000,   0.28868,   0.56314  )

     Band symmetry, C_s (m)     point group:

     e(  1 -  1) =     -6.83213  eV     1   --> A'             
     e(  2 -  2) =     -6.70278  eV     1   --> A'             
     e(  3 -  3) =     -6.54820  eV     1   --> A'             
     e(  4 -  4) =     -6.39921  eV     1   --> A'             
     e(  5 -  5) =     -5.93377  eV     1   --> A''            
     e(  6 -  6) =     -5.90269  eV     1   --> A'             
     e(  7 -  7) =     -5.78029  eV     1   --> A''            
     e(  8 -  8) =     -5.70013  eV     1   --> A'             
     e(  9 -  9) =      1.38769  eV     1   --> A''            
     e( 10 - 10) =      1.39175  eV     1   --> A'             
     e( 11 - 11) =      1.42376  eV     1   --> A'             
     e( 12 - 12) =      1.46548  eV     1   --> A''            
     e( 13 - 13) =      1.53796  eV     1   --> A'             
     e( 14 - 14) =      2.04701  eV     1   --> A'             
     e( 15 - 15) =      2.37438  eV     1   --> A''            
     e( 16 - 16) =      2.38067  eV     1   --> A'             
     e( 17 - 17) =      2.66317  eV     1   --> A''            
     e( 18 - 18) =      2.89808  eV     1   --> A'             
     e( 19 - 19) =      3.03461  eV     1   --> A'             
     e( 20 - 20) =      3.32781  eV     1   --> A'             
     e( 21 - 21) =      3.55193  eV     1   --> A'             
     e( 22 - 22) =      3.93780  eV     1   --> A''            
     e( 23 - 23) =      4.12565  eV     1   --> A'             
     e( 24 - 24) =      4.30125  eV     1   --> A''            
     e( 25 - 25) =      4.53505  eV     1   --> A'             
     e( 26 - 26) =      5.09860  eV     1   --> A'             
     e( 27 - 27) =      5.30397  eV     1   --> A'             
     e( 28 - 28) =      5.60677  eV     1   --> A'             
     e( 29 - 29) =      5.69599  eV     1   --> A''            
     e( 30 - 30) =      5.76038  eV     1   --> A''            
     e( 31 - 31) =      5.77899  eV     1   --> A'             
     e( 32 - 32) =      5.87445  eV     1   --> A''            
     e( 33 - 33) =      5.97002  eV     1   --> A''            
     e( 34 - 34) =      5.98058  eV     1   --> A'             
     e( 35 - 35) =      6.10718  eV     1   --> A''            
     e( 36 - 36) =      6.76454  eV     1   --> A''            
     e( 37 - 37) =      7.01316  eV     1   --> A'             
     e( 38 - 38) =     13.01114  eV     1   --> A'             
     e( 39 - 39) =     13.26796  eV     1   --> A'             
     e( 40 - 40) =     13.46361  eV     1   --> A'             
     e( 41 - 41) =     13.54087  eV     1   --> A'             
     e( 42 - 42) =     13.56009  eV     1   --> A''            
     e( 43 - 43) =     13.67190  eV     1   --> A'             
     e( 44 - 44) =     13.67208  eV     1   --> A''            
     e( 45 - 45) =     13.95063  eV     1   --> A'             
     e( 46 - 46) =     15.68147  eV     1   --> A''            
     e( 47 - 47) =     15.71505  eV     1   --> A'             
     e( 48 - 48) =     15.81226  eV     1   --> A'             
     e( 49 - 49) =     15.96502  eV     1   --> A'             
     e( 50 - 50) =     16.04821  eV     1   --> A''            
     e( 51 - 51) =     16.24209  eV     1   --> A'             
     e( 52 - 52) =     16.53410  eV     1   --> A'             
     e( 53 - 53) =     16.78646  eV     1   --> A'             
     e( 54 - 54) =     17.58769  eV     1   --> A'             
     e( 55 - 55) =     18.08650  eV     1   --> A''            
     e( 56 - 56) =     18.09567  eV     1   --> A'             
     e( 57 - 57) =     18.28288  eV     1   --> A'             
     e( 58 - 58) =     18.39913  eV     1   --> A'             
     e( 59 - 59) =     18.50085  eV     1   --> A''            
     e( 60 - 60) =     18.80391  eV     1   --> A'             
     e( 61 - 61) =     19.15469  eV     1   --> A'             
     e( 62 - 62) =     19.44420  eV     1   --> A''            
     e( 63 - 63) =     19.55820  eV     1   --> A''            
     e( 64 - 64) =     19.72299  eV     1   --> A''            

 **************************************************************************

 **************************************************************************

                    xk=(   0.50000,   0.28868,   0.59443  )

     Band symmetry, C_s (m)     point group:

     e(  1 -  1) =     -6.77492  eV     1   --> A'             
     e(  2 -  2) =     -6.66302  eV     1   --> A'             
     e(  3 -  3) =     -6.60652  eV     1   --> A'             
     e(  4 -  4) =     -6.44398  eV     1   --> A'             
     e(  5 -  5) =     -5.90573  eV     1   --> A''            
     e(  6 -  6) =     -5.88967  eV     1   --> A'             
     e(  7 -  7) =     -5.80822  eV     1   --> A''            
     e(  8 -  8) =     -5.71337  eV     1   --> A'             
     e(  9 -  9) =      1.38474  eV     1   --> A''            
     e( 10 - 10) =      1.39043  eV     1   --> A'             
     e( 11 - 11) =      1.42043  eV     1   --> A'             
     e( 12 - 12) =      1.46081  eV     1   --> A''            
     e( 13 - 13) =      1.53508  eV     1   --> A'             
     e( 14 - 14) =      2.04317  eV     1   --> A'             
     e( 15 - 15) =      2.37167  eV     1   --> A''            
     e( 16 - 16) =      2.37767  eV     1   --> A'             
     e( 17 - 17) =      2.65994  eV     1   --> A''            
     e( 18 - 18) =      2.91335  eV     1   --> A'             
     e( 19 - 19) =      3.09169  eV     1   --> A'             
     e( 20 - 20) =      3.27435  eV     1   --> A'             
     e( 21 - 21) =      3.52329  eV     1   --> A'             
     e( 22 - 22) =      3.96372  eV     1   --> A''            
     e( 23 - 23) =      4.15670  eV     1   --> A'             
     e( 24 - 24) =      4.26376  eV     1   --> A''            
     e( 25 - 25) =      4.49736  eV     1   --> A'             
     e( 26 - 26) =      5.19484  eV     1   --> A'             
     e( 27 - 27) =      5.38340  eV     1   --> A'             
     e( 28 - 28) =      5.53418  eV     1   --> A'             
     e( 29 - 29) =      5.69682  eV     1   --> A'             
     e( 30 - 30) =      5.76955  eV     1   --> A''            
     e( 31 - 31) =      5.79991  eV     1   --> A''            
     e( 32 - 32) =      5.85714  eV     1   --> A''            
     e( 33 - 33) =      5.95576  eV     1   --> A''            
     e( 34 - 34) =      6.00660  eV     1   --> A'             
     e( 35 - 35) =      6.06592  eV     1   --> A''            
     e( 36 - 36) =      6.75598  eV     1   --> A''            
     e( 37 - 37) =      7.01616  eV     1   --> A'             
     e( 38 - 38) =     13.04680  eV     1   --> A'             
     e( 39 - 39) =     13.34119  eV     1   --> A'             
     e( 40 - 40) =     13.43984  eV     1   --> A'             
     e( 41 - 41) =     13.52892  eV     1   --> A'             
     e( 42 - 42) =     13.57494  eV     1   --> A''            
     e( 43 - 43) =     13.59211  eV     1   --> A'             
     e( 44 - 44) =     13.65024  eV     1   --> A''            
     e( 45 - 45) =     13.92290  eV     1   --> A'             
     e( 46 - 46) =     15.70017  eV     1   --> A''            
     e( 47 - 47) =     15.74280  eV     1   --> A'             
     e( 48 - 48) =     15.84159  eV     1   --> A'             
     e( 49 - 49) =     15.98002  eV     1   --> A'             
     e( 50 - 50) =     16.02149  eV     1   --> A''            
     e( 51 - 51) =     16.21282  eV     1   --> A'             
     e( 52 - 52) =     16.57547  eV     1   --> A'             
     e( 53 - 53) =     16.71929  eV     1   --> A'             
     e( 54 - 54) =     17.59200  eV     1   --> A'             
     e( 55 - 55) =     18.09274  eV     1   --> A''            
     e( 56 - 56) =     18.13066  eV     1   --> A'             
     e( 57 - 57) =     18.25711  eV     1   --> A'             
     e( 58 - 58) =     18.42508  eV     1   --> A'             
     e( 59 - 59) =     18.50322  eV     1   --> A''            
     e( 60 - 60) =     18.74262  eV     1   --> A'             
     e( 61 - 61) =     19.16035  eV     1   --> A'             
     e( 62 - 62) =     19.49358  eV     1   --> A''            
     e( 63 - 63) =     19.58722  eV     1   --> A''            
     e( 64 - 64) =     19.74247  eV     1   --> A''            

 **************************************************************************

 **************************************************************************

                    xk=(   0.50000,   0.28868,   0.62571  )

     Band symmetry, C_s (m)     point group:

     e(  1 -  1) =     -6.74122  eV     1   --> A'             
     e(  2 -  2) =     -6.65874  eV     1   --> A'             
     e(  3 -  3) =     -6.62672  eV     1   --> A'             
     e(  4 -  4) =     -6.46383  eV     1   --> A'             
     e(  5 -  5) =     -5.89154  eV     1   --> A''            
     e(  6 -  6) =     -5.88477  eV     1   --> A'             
     e(  7 -  7) =     -5.82238  eV     1   --> A''            
     e(  8 -  8) =     -5.71831  eV     1   --> A'             
     e(  9 -  9) =      1.38376  eV     1   --> A''            
     e( 10 - 10) =      1.38989  eV     1   --> A'             
     e( 11 - 11) =      1.41940  eV     1   --> A'             
     e( 12 - 12) =      1.45923  eV     1   --> A''            
     e( 13 - 13) =      1.53412  eV     1   --> A'             
     e( 14 - 14) =      2.04190  eV     1   --> A'             
     e( 15 - 15) =      2.37077  eV     1   --> A''            
     e( 16 - 16) =      2.37661  eV     1   --> A'             
     e( 17 - 17) =      2.65882  eV     1   --> A''            
     e( 18 - 18) =      2.91877  eV     1   --> A'             
     e( 19 - 19) =      3.12156  eV     1   --> A'             
     e( 20 - 20) =      3.24573  eV     1   --> A'             
     e( 21 - 21) =      3.51331  eV     1   --> A'             
     e( 22 - 22) =      3.97424  eV     1   --> A''            
     e( 23 - 23) =      4.16915  eV     1   --> A'             
     e( 24 - 24) =      4.24938  eV     1   --> A''            
     e( 25 - 25) =      4.48261  eV     1   --> A'             
     e( 26 - 26) =      5.24775  eV     1   --> A'             
     e( 27 - 27) =      5.39053  eV     1   --> A'             
     e( 28 - 28) =      5.53359  eV     1   --> A'             
     e( 29 - 29) =      5.64334  eV     1   --> A'             
     e( 30 - 30) =      5.81455  eV     1   --> A''            
     e( 31 - 31) =      5.82068  eV     1   --> A''            
     e( 32 - 32) =      5.82783  eV     1   --> A''            
     e( 33 - 33) =      5.95277  eV     1   --> A''            
     e( 34 - 34) =      6.01667  eV     1   --> A'             
     e( 35 - 35) =      6.04603  eV     1   --> A''            
     e( 36 - 36) =      6.75304  eV     1   --> A''            
     e( 37 - 37) =      7.01704  eV     1   --> A'             
     e( 38 - 38) =     13.06075  eV     1   --> A'             
     e( 39 - 39) =     13.37847  eV     1   --> A'             
     e( 40 - 40) =     13.43537  eV     1   --> A'             
     e( 41 - 41) =     13.51240  eV     1   --> A'             
     e( 42 - 42) =     13.55963  eV     1   --> A'             
     e( 43 - 43) =     13.58132  eV     1   --> A''            
     e( 44 - 44) =     13.64150  eV     1   --> A''            
     e( 45 - 45) =     13.91357  eV     1   --> A'             
     e( 46 - 46) =     15.70717  eV     1   --> A''            
     e( 47 - 47) =     15.75270  eV     1   --> A'             
     e( 48 - 48) =     15.85031  eV     1   --> A'             
     e( 49 - 49) =     15.98899  eV     1   --> A'             
     e( 50 - 50) =     16.01181  eV     1   --> A''            
     e( 51 - 51) =     16.19885  eV     1   --> A'             
     e( 52 - 52) =     16.60940  eV     1   --> A'             
     e( 53 - 53) =     16.67740  eV     1   --> A'             
     e( 54 - 54) =     17.59370  eV     1   --> A'             
     e( 55 - 55) =     18.09496  eV     1   --> A''            
     e( 56 - 56) =     18.14825  eV     1   --> A'             
     e( 57 - 57) =     18.24071  eV     1   --> A'             
     e( 58 - 58) =     18.44012  eV     1   --> A'             
     e( 59 - 59) =     18.50392  eV     1   --> A''            
     e( 60 - 60) =     18.71727  eV     1   --> A'             
     e( 61 - 61) =     19.16259  eV     1   --> A'             
     e( 62 - 62) =     19.51171  eV     1   --> A''            
     e( 63 - 63) =     19.59962  eV     1   --> A''            
     e( 64 - 64) =     19.74786  eV     1   --> A''            

 **************************************************************************

     BANDS        :  0m59.32s CPU     1m13.37s WALL


   This run was terminated on:  22:57:12   7Aug2024            

=------------------------------------------------------------------------------=
   JOB DONE.
=------------------------------------------------------------------------------=
