
     Program PWSCF v.6.0 (svn rev. 13079) starts on  7Aug2024 at 22:44:36 

     This program is part of the open-source Quantum ESPRESSO suite
     for quantum simulation of materials; please cite
         "P. Giannozzi et al., J. Phys.:Condens. Matter 21 395502 (2009);
          URL http://www.quantum-espresso.org", 
     in publications or presentations arising from this work. More details at
     http://www.quantum-espresso.org/quote

     Parallel version (MPI), running on    48 processors
     R & G space division:  proc/nbgrp/npool/nimage =      48
     Waiting for input...
     Reading input from standard input

     Current dimensions of program PWSCF are:
     Max number of different atomic species (ntypx) = 10
     Max number of k-points (npk) =  40000
     Max angular momentum in pseudopotentials (lmaxx) =  3
               file Zn.pbesol-dnl-rrkjus_psl.1.0.0.UPF: wavefunction(s)  3D renormalized

     Subspace diagonalization in iterative solution of the eigenvalue problem:
     one sub-group per band group will be used
     ELPA distributed-memory algorithm (size of sub-group:  4*  4 procs)


     Parallelization info
     --------------------
     sticks:   dense  smooth     PW     G-vecs:    dense   smooth      PW
     Min         113      64     17                 5389     2326     341
     Max         115      65     18                 5392     2331     346
     Sum        5437    3103    859               258683   111743   16559



     bravais-lattice index     =            0
     lattice parameter (alat)  =      11.8643  a.u.
     unit-cell volume          =    1155.7332 (a.u.)^3
     number of atoms/cell      =           16
     number of atomic types    =            3
     number of electrons       =        73.00
     number of Kohn-Sham states=           44
     kinetic-energy cutoff     =      80.0000  Ry
     charge density cutoff     =     560.0000  Ry
     convergence threshold     =      1.0E-04
     mixing beta               =       0.4000
     number of iterations used =            8  plain     mixing
     Exchange-correlation      = PBESOL ( 1  4 10  8 0 0)

     celldm(1)=  11.864350  celldm(2)=   0.000000  celldm(3)=   0.000000
     celldm(4)=   0.000000  celldm(5)=   0.000000  celldm(6)=   0.000000

     crystal axes: (cart. coord. in units of alat)
               a(1) = (   1.000000   0.000000   0.000000 )  
               a(2) = (  -0.500000   0.866025   0.000000 )  
               a(3) = (   0.000000   0.000000   0.799089 )  

     reciprocal axes: (cart. coord. in units 2 pi/alat)
               b(1) = (  1.000000  0.577350 -0.000000 )  
               b(2) = (  0.000000  1.154701  0.000000 )  
               b(3) = (  0.000000 -0.000000  1.251425 )  


     PseudoPot. # 1 for Al read from file:
     pseudo/Al.pbesol-n-rrkjus_psl.1.0.0.UPF
     MD5 check sum: dbcefca01057e646ce9c389674ce64eb
     Pseudo is Ultrasoft + core correction, Zval =  3.0
     Generated using "atomic" code by A. Dal Corso  v.6.3
     Using radial grid of 1135 points,  6 beta functions with: 
                l(1) =   0
                l(2) =   0
                l(3) =   1
                l(4) =   1
                l(5) =   2
                l(6) =   2
     Q(r) pseudized with 0 coefficients 


     PseudoPot. # 2 for  N read from file:
     pseudo/N.pbesol-n-rrkjus_psl.1.0.0.UPF
     MD5 check sum: 006b6b9dfb5634708511e9f3c875aba4
     Pseudo is Ultrasoft + core correction, Zval =  5.0
     Generated using "atomic" code by A. Dal Corso  v.6.3MaX
     Using radial grid of 1085 points,  4 beta functions with: 
                l(1) =   0
                l(2) =   0
                l(3) =   1
                l(4) =   1
     Q(r) pseudized with 0 coefficients 


     PseudoPot. # 3 for Zn read from file:
     pseudo/Zn.pbesol-dnl-rrkjus_psl.1.0.0.UPF
     MD5 check sum: a309e45c14cefa6e6c805f9539203eb5
     Pseudo is Ultrasoft + core correction, Zval = 12.0
     Generated using "atomic" code by A. Dal Corso  v.6.2.2
     Using radial grid of 1201 points,  6 beta functions with: 
                l(1) =   0
                l(2) =   0
                l(3) =   1
                l(4) =   1
                l(5) =   2
                l(6) =   2
     Q(r) pseudized with 0 coefficients 


     atomic species   valence    mass     pseudopotential
        Al             3.00    26.98150     Al( 1.00)
        N              5.00    14.00670      N( 1.00)
        Zn            12.00    65.38000     Zn( 1.00)

      6 Sym. Ops. (no inversion) found ( 4 have fractional translation)



   Cartesian axes

     site n.     atom                  positions (alat units)
         1           Zn  tau(   1) = (   0.2499995   0.1443379   0.3953266  )
         2           Al  tau(   2) = (   0.0013817   0.5781486   0.3993193  )
         3           Al  tau(   3) = (   0.7499995   0.1427418   0.3993193  )
         4           Al  tau(   4) = (   0.4986173   0.5781486   0.3993193  )
         5           Al  tau(   5) = (  -0.0031986   0.2905218   0.7980060  )
         6           Al  tau(   6) = (  -0.2499995   0.7179936   0.7980060  )
         7           Al  tau(   7) = (   0.5031996   0.2905218   0.7980060  )
         8           Al  tau(   8) = (   0.2500005   0.7216875   0.7971723  )
         9           N   tau(   9) = (   0.2499995   0.1443379   0.7274444  )
        10           N   tau(  10) = (   0.0012044   0.5780462   0.7022690  )
        11           N   tau(  11) = (   0.7499995   0.1429466   0.7022690  )
        12           N   tau(  12) = (   0.4987946   0.5780462   0.7022690  )
        13           N   tau(  13) = (  -0.0151628   0.2974294   0.2999492  )
        14           N   tau(  14) = (  -0.2499995   0.7041785   0.2999492  )
        15           N   tau(  15) = (   0.5151638   0.2974294   0.2999492  )
        16           N   tau(  16) = (   0.2500005   0.7216875   0.3033679  )

     number of k points=    72  gaussian smearing, width (Ry)=  0.0200
                       cart. coord. in units 2pi/alat
        k(    1) = (   0.0625000   0.1082532   0.1564281), wk =   0.0312500
        k(    2) = (   0.0625000   0.1082532   0.4692844), wk =   0.0312500
        k(    3) = (   0.0625000   0.2525907   0.1564281), wk =   0.0312500
        k(    4) = (   0.0625000   0.2525907   0.4692844), wk =   0.0312500
        k(    5) = (   0.0625000   0.3969283   0.1564281), wk =   0.0312500
        k(    6) = (   0.0625000   0.3969283   0.4692844), wk =   0.0312500
        k(    7) = (   0.0625000   0.5412659   0.1564281), wk =   0.0312500
        k(    8) = (   0.0625000   0.5412659   0.4692844), wk =   0.0312500
        k(    9) = (   0.0625000  -0.4690971   0.1564281), wk =   0.0312500
        k(   10) = (   0.0625000  -0.4690971   0.4692844), wk =   0.0312500
        k(   11) = (   0.0625000  -0.3247595   0.1564281), wk =   0.0312500
        k(   12) = (   0.0625000  -0.3247595   0.4692844), wk =   0.0312500
        k(   13) = (   0.0625000  -0.1804220   0.1564281), wk =   0.0312500
        k(   14) = (   0.0625000  -0.1804220   0.4692844), wk =   0.0312500
        k(   15) = (   0.0625000  -0.0360844   0.1564281), wk =   0.0156250
        k(   16) = (   0.0625000  -0.0360844   0.4692844), wk =   0.0156250
        k(   17) = (   0.1875000   0.3247595   0.1564281), wk =   0.0312500
        k(   18) = (   0.1875000   0.3247595   0.4692844), wk =   0.0312500
        k(   19) = (   0.1875000   0.4690971   0.1564281), wk =   0.0312500
        k(   20) = (   0.1875000   0.4690971   0.4692844), wk =   0.0312500
        k(   21) = (   0.1875000   0.6134347   0.1564281), wk =   0.0312500
        k(   22) = (   0.1875000   0.6134347   0.4692844), wk =   0.0312500
        k(   23) = (   0.1875000  -0.3969283   0.1564281), wk =   0.0312500
        k(   24) = (   0.1875000  -0.3969283   0.4692844), wk =   0.0312500
        k(   25) = (   0.1875000  -0.2525907   0.1564281), wk =   0.0312500
        k(   26) = (   0.1875000  -0.2525907   0.4692844), wk =   0.0312500
        k(   27) = (   0.1875000  -0.1082532   0.1564281), wk =   0.0156250
        k(   28) = (   0.1875000  -0.1082532   0.4692844), wk =   0.0156250
        k(   29) = (   0.3125000   0.5412659   0.1564281), wk =   0.0312500
        k(   30) = (   0.3125000   0.5412659   0.4692844), wk =   0.0312500
        k(   31) = (   0.3125000   0.6856034   0.1564281), wk =   0.0312500
        k(   32) = (   0.3125000   0.6856034   0.4692844), wk =   0.0312500
        k(   33) = (   0.3125000  -0.3247595   0.1564281), wk =   0.0312500
        k(   34) = (   0.3125000  -0.3247595   0.4692844), wk =   0.0312500
        k(   35) = (   0.3125000  -0.1804220   0.1564281), wk =   0.0156250
        k(   36) = (   0.3125000  -0.1804220   0.4692844), wk =   0.0156250
        k(   37) = (   0.4375000   0.7577722   0.1564281), wk =   0.0312500
        k(   38) = (   0.4375000   0.7577722   0.4692844), wk =   0.0312500
        k(   39) = (   0.4375000  -0.2525907   0.1564281), wk =   0.0156250
        k(   40) = (   0.4375000  -0.2525907   0.4692844), wk =   0.0156250
        k(   41) = (  -0.0625000  -0.2525907   0.1564281), wk =   0.0312500
        k(   42) = (  -0.0625000  -0.2525907   0.4692844), wk =   0.0312500
        k(   43) = (  -0.0625000  -0.3969283   0.1564281), wk =   0.0312500
        k(   44) = (  -0.0625000  -0.3969283   0.4692844), wk =   0.0312500
        k(   45) = (  -0.0625000  -0.5412659   0.1564281), wk =   0.0312500
        k(   46) = (  -0.0625000  -0.5412659   0.4692844), wk =   0.0312500
        k(   47) = (  -0.0625000   0.4690971   0.1564281), wk =   0.0312500
        k(   48) = (  -0.0625000   0.4690971   0.4692844), wk =   0.0312500
        k(   49) = (  -0.0625000   0.3247595   0.1564281), wk =   0.0312500
        k(   50) = (  -0.0625000   0.3247595   0.4692844), wk =   0.0312500
        k(   51) = (  -0.0625000   0.1804220   0.1564281), wk =   0.0312500
        k(   52) = (  -0.0625000   0.1804220   0.4692844), wk =   0.0312500
        k(   53) = (  -0.0625000   0.0360844   0.1564281), wk =   0.0156250
        k(   54) = (  -0.0625000   0.0360844   0.4692844), wk =   0.0156250
        k(   55) = (  -0.1875000  -0.4690971   0.1564281), wk =   0.0312500
        k(   56) = (  -0.1875000  -0.4690971   0.4692844), wk =   0.0312500
        k(   57) = (  -0.1875000  -0.6134347   0.1564281), wk =   0.0312500
        k(   58) = (  -0.1875000  -0.6134347   0.4692844), wk =   0.0312500
        k(   59) = (  -0.1875000   0.3969283   0.1564281), wk =   0.0312500
        k(   60) = (  -0.1875000   0.3969283   0.4692844), wk =   0.0312500
        k(   61) = (  -0.1875000   0.2525907   0.1564281), wk =   0.0312500
        k(   62) = (  -0.1875000   0.2525907   0.4692844), wk =   0.0312500
        k(   63) = (  -0.1875000   0.1082532   0.1564281), wk =   0.0156250
        k(   64) = (  -0.1875000   0.1082532   0.4692844), wk =   0.0156250
        k(   65) = (  -0.3125000  -0.6856034   0.1564281), wk =   0.0312500
        k(   66) = (  -0.3125000  -0.6856034   0.4692844), wk =   0.0312500
        k(   67) = (  -0.3125000   0.3247595   0.1564281), wk =   0.0312500
        k(   68) = (  -0.3125000   0.3247595   0.4692844), wk =   0.0312500
        k(   69) = (  -0.3125000   0.1804220   0.1564281), wk =   0.0156250
        k(   70) = (  -0.3125000   0.1804220   0.4692844), wk =   0.0156250
        k(   71) = (  -0.4375000   0.2525907   0.1564281), wk =   0.0156250
        k(   72) = (  -0.4375000   0.2525907   0.4692844), wk =   0.0156250

     Dense  grid:   258683 G-vectors     FFT dimensions: (  90,  90,  72)

     Smooth grid:   111743 G-vectors     FFT dimensions: (  72,  72,  54)

     Estimated max dynamical RAM per process >      21.16Mb

     Estimated total allocated dynamical RAM >    1015.45Mb

     Initial potential from superposition of free atoms

     starting charge   72.98114, renormalised to   73.00000
     Starting wfc are   69 randomized atomic wfcs

     total cpu time spent up to now is       11.5 secs

     per-process dynamical memory:    40.6 Mb

     Self-consistent Calculation

     iteration #  1     ecut=    80.00 Ry     beta=0.40
     Davidson diagonalization with overlap
     ethr =  1.00E-02,  avg # of iterations =  3.3

     total cpu time spent up to now is       32.5 secs

     total energy              =    -346.82533626 Ry
     Harris-Foulkes estimate   =    -349.08020666 Ry
     estimated scf accuracy    <       4.39531199 Ry

     iteration #  2     ecut=    80.00 Ry     beta=0.40
     Davidson diagonalization with overlap
     ethr =  6.02E-03,  avg # of iterations =  2.0

     negative rho (up, down):  2.068E-03 0.000E+00

     total cpu time spent up to now is       51.0 secs

     total energy              =    -347.83109549 Ry
     Harris-Foulkes estimate   =    -347.93602362 Ry
     estimated scf accuracy    <       0.40486779 Ry

     iteration #  3     ecut=    80.00 Ry     beta=0.40
     Davidson diagonalization with overlap
     ethr =  5.55E-04,  avg # of iterations =  4.4

     negative rho (up, down):  9.194E-05 0.000E+00

     total cpu time spent up to now is       75.1 secs

     total energy              =    -348.00020145 Ry
     Harris-Foulkes estimate   =    -348.06909373 Ry
     estimated scf accuracy    <       2.72936220 Ry

     iteration #  4     ecut=    80.00 Ry     beta=0.40
     Davidson diagonalization with overlap
     ethr =  5.55E-04,  avg # of iterations =  1.3

     negative rho (up, down):  7.764E-05 0.000E+00

     total cpu time spent up to now is       89.4 secs

     total energy              =    -347.75921032 Ry
     Harris-Foulkes estimate   =    -348.00762472 Ry
     estimated scf accuracy    <       1.81447428 Ry

     iteration #  5     ecut=    80.00 Ry     beta=0.40
     Davidson diagonalization with overlap
     ethr =  5.55E-04,  avg # of iterations =  2.0

     negative rho (up, down):  9.839E-05 0.000E+00

     total cpu time spent up to now is      106.4 secs

     total energy              =    -347.91420731 Ry
     Harris-Foulkes estimate   =    -347.90846192 Ry
     estimated scf accuracy    <       0.64723578 Ry

     iteration #  6     ecut=    80.00 Ry     beta=0.40
     Davidson diagonalization with overlap
     ethr =  5.55E-04,  avg # of iterations =  1.0

     total cpu time spent up to now is      121.0 secs

     total energy              =    -347.81841811 Ry
     Harris-Foulkes estimate   =    -347.91476155 Ry
     estimated scf accuracy    <       0.69696614 Ry

     iteration #  7     ecut=    80.00 Ry     beta=0.40
     Davidson diagonalization with overlap
     ethr =  5.55E-04,  avg # of iterations =  2.0

     total cpu time spent up to now is      137.3 secs

     total energy              =    -347.88157183 Ry
     Harris-Foulkes estimate   =    -347.86396161 Ry
     estimated scf accuracy    <       0.12997599 Ry

     iteration #  8     ecut=    80.00 Ry     beta=0.40
     Davidson diagonalization with overlap
     ethr =  1.78E-04,  avg # of iterations =  2.0

     total cpu time spent up to now is      152.9 secs

     total energy              =    -347.81034111 Ry
     Harris-Foulkes estimate   =    -347.89763792 Ry
     estimated scf accuracy    <       0.46653739 Ry

     iteration #  9     ecut=    80.00 Ry     beta=0.40
     Davidson diagonalization with overlap
     ethr =  1.78E-04,  avg # of iterations =  2.0

     total cpu time spent up to now is      169.4 secs

     total energy              =    -347.85496429 Ry
     Harris-Foulkes estimate   =    -347.85434950 Ry
     estimated scf accuracy    <       0.02674811 Ry

     iteration # 10     ecut=    80.00 Ry     beta=0.40
     Davidson diagonalization with overlap
     ethr =  3.66E-05,  avg # of iterations =  2.2

     total cpu time spent up to now is      184.9 secs

     total energy              =    -347.84870689 Ry
     Harris-Foulkes estimate   =    -347.86013372 Ry
     estimated scf accuracy    <       0.07613699 Ry

     iteration # 11     ecut=    80.00 Ry     beta=0.40
     Davidson diagonalization with overlap
     ethr =  3.66E-05,  avg # of iterations =  2.0

     total cpu time spent up to now is      200.6 secs

     total energy              =    -347.85167940 Ry
     Harris-Foulkes estimate   =    -347.85434977 Ry
     estimated scf accuracy    <       0.01736508 Ry

     iteration # 12     ecut=    80.00 Ry     beta=0.40
     Davidson diagonalization with overlap
     ethr =  2.38E-05,  avg # of iterations =  2.1

     total cpu time spent up to now is      216.2 secs

     total energy              =    -347.85239260 Ry
     Harris-Foulkes estimate   =    -347.85278449 Ry
     estimated scf accuracy    <       0.00224051 Ry

     iteration # 13     ecut=    80.00 Ry     beta=0.40
     Davidson diagonalization with overlap
     ethr =  3.07E-06,  avg # of iterations =  4.1

     total cpu time spent up to now is      234.1 secs

     total energy              =    -347.85272820 Ry
     Harris-Foulkes estimate   =    -347.85266591 Ry
     estimated scf accuracy    <       0.00011635 Ry

     iteration # 14     ecut=    80.00 Ry     beta=0.40
     Davidson diagonalization with overlap
     ethr =  1.59E-07,  avg # of iterations =  3.3

     total cpu time spent up to now is      253.2 secs

     total energy              =    -347.85265904 Ry
     Harris-Foulkes estimate   =    -347.85277705 Ry
     estimated scf accuracy    <       0.00076295 Ry

     iteration # 15     ecut=    80.00 Ry     beta=0.40
     Davidson diagonalization with overlap
     ethr =  1.59E-07,  avg # of iterations =  2.1

     total cpu time spent up to now is      272.3 secs

     total energy              =    -347.85273100 Ry
     Harris-Foulkes estimate   =    -347.85272407 Ry
     estimated scf accuracy    <       0.00014713 Ry

     iteration # 16     ecut=    80.00 Ry     beta=0.40
     Davidson diagonalization with overlap
     ethr =  1.59E-07,  avg # of iterations =  1.0

     total cpu time spent up to now is      286.2 secs

     total energy              =    -347.85272849 Ry
     Harris-Foulkes estimate   =    -347.85273140 Ry
     estimated scf accuracy    <       0.00017012 Ry

     iteration # 17     ecut=    80.00 Ry     beta=0.40
     Davidson diagonalization with overlap
     ethr =  1.59E-07,  avg # of iterations =  2.0

     total cpu time spent up to now is      301.0 secs

     total energy              =    -347.85273420 Ry
     Harris-Foulkes estimate   =    -347.85273159 Ry
     estimated scf accuracy    <       0.00015594 Ry

     iteration # 18     ecut=    80.00 Ry     beta=0.40
     Davidson diagonalization with overlap
     ethr =  1.59E-07,  avg # of iterations =  2.0

     total cpu time spent up to now is      316.3 secs

     total energy              =    -347.85272770 Ry
     Harris-Foulkes estimate   =    -347.85274052 Ry
     estimated scf accuracy    <       0.00023779 Ry

     iteration # 19     ecut=    80.00 Ry     beta=0.40
     Davidson diagonalization with overlap
     ethr =  1.59E-07,  avg # of iterations =  2.0

     total cpu time spent up to now is      331.7 secs

     total energy              =    -347.85272665 Ry
     Harris-Foulkes estimate   =    -347.85274058 Ry
     estimated scf accuracy    <       0.00023693 Ry

     iteration # 20     ecut=    80.00 Ry     beta=0.40
     Davidson diagonalization with overlap
     ethr =  1.59E-07,  avg # of iterations =  2.0

     total cpu time spent up to now is      347.1 secs

     total energy              =    -347.85276075 Ry
     Harris-Foulkes estimate   =    -347.85273207 Ry
     estimated scf accuracy    <       0.00016418 Ry

     iteration # 21     ecut=    80.00 Ry     beta=0.40
     Davidson diagonalization with overlap
     ethr =  1.59E-07,  avg # of iterations =  2.0

     total cpu time spent up to now is      362.5 secs

     total energy              =    -347.85268338 Ry
     Harris-Foulkes estimate   =    -347.85277443 Ry
     estimated scf accuracy    <       0.00053420 Ry

     iteration # 22     ecut=    80.00 Ry     beta=0.40
     Davidson diagonalization with overlap
     ethr =  1.59E-07,  avg # of iterations =  2.0

     total cpu time spent up to now is      378.7 secs

     End of self-consistent calculation

          k = 0.0625 0.1083 0.1564 ( 13967 PWs)   bands (ev):

    -7.9962  -6.2820  -6.2167  -6.1427  -6.0617  -5.5628  -5.5050  -5.4911
     1.1628   1.2529   1.2996   1.5350   1.6727   1.7084   1.9968   2.0375
     2.1005   2.8436   2.8946   2.9785   3.7948   3.9133   4.1090   4.7687
     4.8938   4.9397   5.5042   5.5690   5.7242   5.9933   6.0564   6.1138
     6.2293   6.3551   6.7362   7.1103   7.1993  11.3198  12.5028  12.5721
    12.6297  12.9431  13.0560  13.1480

          k = 0.0625 0.1083 0.4693 ( 13926 PWs)   bands (ev):

    -7.5547  -6.7936  -6.0545  -5.9978  -5.9276  -5.7328  -5.6919  -5.6414
     1.0291   1.0774   1.3032   1.4435   1.4828   1.5449   1.8351   1.9427
     2.0961   2.4675   2.5012   2.8942   4.7345   4.8241   4.9407   5.1062
     5.2261   5.3399   5.4782   5.5435   5.7542   5.7819   5.9549   5.9937
     6.2335   6.3086   6.5658   7.0387   7.0677  11.9631  12.1292  12.1566
    12.5892  12.7930  12.8513  13.0540

          k = 0.0625 0.2526 0.1564 ( 13960 PWs)   bands (ev):

    -7.8790  -6.5312  -6.2944  -6.1016  -6.0175  -5.5614  -5.4906  -5.4694
     1.2475   1.3302   1.4247   1.6407   1.7016   1.8259   2.0098   2.1298
     2.2222   2.9436   2.9906   3.1345   3.6785   3.7985   3.9698   4.5150
     4.7213   4.9927   5.4070   5.5647   5.6900   5.7587   5.8104   6.0483
     6.1047   6.3239   6.4833   6.9732   7.1411  11.7627  12.6525  12.7554
    12.8969  13.1111  13.4980  13.6626

          k = 0.0625 0.2526 0.4693 ( 13947 PWs)   bands (ev):

    -7.4457  -6.7057  -6.2430  -6.0571  -5.9102  -5.8367  -5.6973  -5.6283
     1.1256   1.2564   1.3784   1.4667   1.5141   1.6359   1.9187   2.1358
     2.3408   2.4999   2.6380   2.9444   4.3846   4.5508   4.6748   4.9440
     5.1048   5.2768   5.3937   5.4547   5.6103   5.8022   5.9173   5.9994
     6.0683   6.2355   6.3884   6.9649   7.0000  12.2794  12.3856  12.5172
    12.8336  12.9862  13.2245  13.4575

          k = 0.0625 0.3969 0.1564 ( 13980 PWs)   bands (ev):

    -7.6767  -6.8675  -6.3541  -6.0915  -5.9150  -5.5959  -5.4792  -5.4669
     1.3608   1.4431   1.5247   1.6781   1.7499   1.9781   2.1451   2.3528
     2.4175   2.9881   3.0219   3.1890   3.6808   3.7877   3.9752   4.3228
     4.4223   4.8346   5.1135   5.1620   5.4327   5.6012   5.8219   5.9066
     6.0476   6.3273   6.3836   6.8934   7.0695  12.3176  12.7581  12.9595
    13.1191  13.5676  14.0493  14.2827

          k = 0.0625 0.3969 0.4693 ( 13964 PWs)   bands (ev):

    -7.2584  -6.6006  -6.4754  -6.1128  -5.9999  -5.8968  -5.7085  -5.6206
     1.2726   1.3826   1.4565   1.4840   1.5381   1.8444   2.1711   2.3565
     2.5503   2.6085   2.8999   3.0531   3.9476   4.1752   4.3522   4.6699
     4.8088   5.1033   5.2770   5.3934   5.4741   5.7524   5.8685   5.9489
     6.0456   6.1700   6.2122   6.8612   6.9874  12.6223  12.8805  13.0262
    13.1140  13.2804  13.6439  13.9033

          k = 0.0625 0.5413 0.1564 ( 13963 PWs)   bands (ev):

    -7.4234  -7.1879  -6.3826  -6.0938  -5.7960  -5.6819  -5.4762  -5.4621
     1.4215   1.5217   1.5721   1.7016   1.7297   2.1375   2.2889   2.4897
     2.6411   2.7550   2.8890   3.5469   3.7085   3.8721   3.9506   4.2260
     4.3354   4.4885   4.7126   5.1018   5.3547   5.4878   5.6306   5.7928
     6.0235   6.3981   6.5225   6.8162   7.0254  12.6886  12.8426  12.9685
    13.2455  14.0953  14.3819  14.5716

          k = 0.0625 0.5413 0.4693 ( 13971 PWs)   bands (ev):

    -7.0263  -6.8212  -6.3563  -6.2278  -6.0948  -5.8949  -5.7170  -5.6173
     1.3893   1.3998   1.4573   1.5140   1.5637   2.0670   2.3257   2.4748
     2.6717   2.8067   2.8777   3.4121   3.7093   3.7660   4.1707   4.4046
     4.7307   4.8784   4.9884   5.3712   5.5912   5.7355   5.8127   5.9004
     6.0540   6.0961   6.2079   6.7843   6.9941  12.8784  13.0955  13.4451
    13.4787  13.5904  13.7795  14.0238

          k = 0.0625-0.4691 0.1564 ( 13984 PWs)   bands (ev):

    -7.5501  -7.0380  -6.3736  -6.0955  -5.8489  -5.6306  -5.4834  -5.4640
     1.4137   1.5254   1.5349   1.6473   1.7205   2.1124   2.2652   2.3966
     2.5853   2.8602   2.9349   3.2643   3.7832   3.9009   4.0312   4.2274
     4.3487   4.4666   4.9473   5.1790   5.3381   5.5329   5.6923   5.8440
     6.0225   6.3795   6.4792   6.8296   7.0485  12.5309  12.8044  12.9600
    13.1696  14.0983  14.2738  14.4468

          k = 0.0625-0.4691 0.4693 ( 13965 PWs)   bands (ev):

    -7.1429  -6.6840  -6.4611  -6.1415  -6.0686  -5.8895  -5.7181  -5.6211
     1.3783   1.4079   1.4286   1.4862   1.5384   2.0285   2.2315   2.4163
     2.6932   2.7088   2.8394   3.2920   3.7883   3.9480   4.2441   4.4997
     4.6893   4.8878   5.2270   5.3845   5.5652   5.7064   5.8448   5.9649
     6.0366   6.1026   6.1928   6.8113   6.9899  12.7269  13.0439  13.2409
    13.2998  13.6461  13.7431  13.9254

          k = 0.0625-0.3248 0.1564 ( 13973 PWs)   bands (ev):

    -7.7876  -6.6939  -6.3292  -6.1012  -5.9636  -5.5591  -5.4921  -5.4716
     1.3037   1.4410   1.4660   1.5801   1.7191   1.9620   2.0946   2.1656
     2.3918   2.9317   2.9780   3.2316   3.5628   3.8749   3.9783   4.3834
     4.5329   5.0804   5.1359   5.3472   5.5958   5.6628   5.7933   6.0239
     6.1516   6.3039   6.3602   6.9071   7.1163  12.0309  12.7197  12.7962
    12.9601  13.5742  13.7525  13.9672

          k = 0.0625-0.3248 0.4693 ( 13951 PWs)   bands (ev):

    -7.3610  -6.6354  -6.3863  -6.0802  -5.9393  -5.8582  -5.7113  -5.6304
     1.2537   1.3008   1.3634   1.4803   1.5156   1.8140   2.0126   2.1684
     2.5270   2.6172   2.6597   3.0091   4.1635   4.3821   4.5442   4.7518
     4.8962   5.2172   5.3464   5.4678   5.5838   5.7291   5.8705   6.0389
     6.0847   6.1736   6.2502   6.9124   6.9828  12.3555  12.6880  12.7525
    12.9946  13.2599  13.4137  13.6268

          k = 0.0625-0.1804 0.1564 ( 13963 PWs)   bands (ev):

    -7.9490  -6.3862  -6.2583  -6.1258  -6.0405  -5.5577  -5.4997  -5.4789
     1.1910   1.3064   1.3526   1.5588   1.6985   1.7573   2.0055   2.0632
     2.1535   2.8747   2.9164   3.1081   3.6382   3.9056   4.0908   4.6406
     4.8089   4.9629   5.4809   5.6028   5.7454   5.9059   5.9590   6.0177
     6.1552   6.3295   6.6575   7.0188   7.1796  11.5105  12.5596  12.6359
    12.7362  13.0943  13.2274  13.3494

          k = 0.0625-0.1804 0.4693 ( 13933 PWs)   bands (ev):

    -7.5107  -6.7573  -6.1363  -6.0255  -5.9211  -5.7640  -5.6978  -5.6383
     1.0849   1.1407   1.3304   1.4487   1.4931   1.6158   1.8585   1.9749
     2.2519   2.4850   2.5311   2.9183   4.6062   4.6832   4.8640   4.9661
     5.2225   5.3335   5.4289   5.5223   5.6462   5.7839   5.9549   6.0376
     6.1382   6.2697   6.4978   6.9976   7.0320  12.0596  12.2641  12.3114
    12.7003  12.9184  12.9943  13.2021

          k = 0.0625-0.0361 0.1564 ( 13976 PWs)   bands (ev):

    -8.0200  -6.2261  -6.1924  -6.1528  -6.0697  -5.5650  -5.5083  -5.5033
     1.1523   1.2274   1.2632   1.5070   1.6638   1.6905   2.0047   2.0251
     2.0696   2.8282   2.8888   2.9013   3.9001   3.9028   4.1219   4.8347
     4.9235   4.9462   5.5171   5.5415   5.6616   6.0789   6.0977   6.1402
     6.3182   6.3740   6.7580   7.1782   7.2081  11.2145  12.4785  12.5272
    12.5562  12.8893  12.9605  13.0408

          k = 0.0625-0.0361 0.4693 ( 13915 PWs)   bands (ev):

    -7.5769  -6.8120  -6.0096  -5.9843  -5.9321  -5.7114  -5.6900  -5.6471
     1.0051   1.0376   1.2799   1.4511   1.4762   1.5061   1.8410   1.9381
     1.9875   2.4628   2.4829   2.8817   4.7749   4.9616   4.9629   5.2076
     5.2254   5.2947   5.4316   5.6433   5.7819   5.8384   5.9371   5.9436
     6.2977   6.3287   6.5910   7.0703   7.0874  11.9049  12.0643  12.0756
    12.5287  12.7345  12.7696  12.9723

          k = 0.1875 0.3248 0.1564 ( 13981 PWs)   bands (ev):

    -7.7203  -6.7068  -6.5431  -5.9809  -5.9217  -5.5737  -5.5081  -5.4766
     1.3435   1.4501   1.5006   1.6391   1.7314   1.9866   2.0994   2.2876
     2.4517   2.9692   3.0465   3.2521   3.5668   3.6790   3.8460   4.5096
     4.7925   4.8866   5.0082   5.0995   5.4646   5.5402   5.8761   6.0648
     6.1615   6.2360   6.3361   6.9040   7.0241  12.2233  12.6602  13.0096
    13.1568  13.5471  13.8676  14.2766

          k = 0.1875 0.3248 0.4693 ( 13967 PWs)   bands (ev):

    -7.2988  -6.5915  -6.3916  -6.2472  -5.9231  -5.8387  -5.7529  -5.6064
     1.2738   1.3602   1.4060   1.4725   1.5703   1.8540   2.0336   2.3218
     2.5537   2.6796   2.7697   3.0153   3.8677   4.2416   4.6210   4.6983
     4.8417   5.1629   5.3459   5.4205   5.5469   5.7050   5.7921   5.9372
     6.0946   6.1354   6.2542   6.8101   7.0039  12.5923  12.7366  12.9331
    13.1017  13.3329  13.4977  13.8811

          k = 0.1875 0.4691 0.1564 ( 13983 PWs)   bands (ev):

    -7.4869  -6.9968  -6.6629  -5.8843  -5.8170  -5.6299  -5.5276  -5.4979
     1.4177   1.5296   1.5668   1.6957   1.7518   2.0935   2.2666   2.4222
     2.6597   2.9458   3.1216   3.2980   3.3711   3.7307   4.0396   4.3127
     4.6000   4.6347   4.8061   5.0241   5.1430   5.4173   5.7130   5.9034
     6.1620   6.2675   6.4692   6.8324   6.9035  12.5289  12.8139  13.2232
    13.5257  13.8933  14.2165  14.8120

          k = 0.1875 0.4691 0.4693 ( 13969 PWs)   bands (ev):

    -7.0847  -6.6559  -6.4134  -6.3454  -6.0713  -5.8662  -5.7279  -5.5898
     1.3720   1.4028   1.4686   1.5289   1.5976   2.0603   2.2413   2.5556
     2.6528   2.8495   2.9281   3.1737   3.4878   3.8158   4.2829   4.5943
     4.8180   5.0317   5.1409   5.3063   5.4792   5.6587   5.7871   5.8455
     6.0574   6.1404   6.1771   6.6376   7.0203  12.9534  13.1802  13.2739
    13.4234  13.6141  13.7601  14.2218

          k = 0.1875 0.6134 0.1564 ( 13972 PWs)   bands (ev):

    -7.3619  -7.1399  -6.6823  -5.8655  -5.7668  -5.6623  -5.5423  -5.4989
     1.4362   1.5572   1.5781   1.6969   1.7464   2.1824   2.2985   2.4696
     2.6636   2.8461   3.1205   3.3145   3.5937   3.7391   3.9987   4.1679
     4.4527   4.6720   4.7663   4.9143   5.3012   5.3459   5.5803   5.8420
     6.1927   6.2733   6.5338   6.7844   6.8842  12.5246  12.9910  13.1816
    13.6418  14.0104  14.5323  14.6958

          k = 0.1875 0.6134 0.4693 ( 13959 PWs)   bands (ev):

    -6.9718  -6.7740  -6.4052  -6.2993  -6.1488  -5.8733  -5.7188  -5.5874
     1.3756   1.4498   1.4667   1.5437   1.5915   2.1986   2.2385   2.6126
     2.7301   2.7926   2.9604   3.3381   3.4260   3.6288   4.1644   4.5996
     4.7931   4.9277   5.0904   5.3519   5.4711   5.5794   5.8197   5.8688
     6.0404   6.1288   6.1529   6.5928   7.0238  13.0425  13.2283  13.4421
    13.5740  13.6686  13.9332  14.0669

          k = 0.1875-0.3969 0.1564 ( 13980 PWs)   bands (ev):

    -7.6113  -6.8414  -6.6212  -5.9292  -5.8672  -5.5895  -5.5259  -5.4863
     1.3914   1.5093   1.5294   1.6542   1.7340   2.0574   2.1705   2.3808
     2.5997   2.9650   3.0611   3.2385   3.4518   3.7554   3.8608   4.5548
     4.6603   4.7517   4.8770   5.0043   5.2797   5.4574   5.7977   6.0279
     6.1805   6.2014   6.4034   6.8591   6.9634  12.4472  12.6665  13.1510
    13.3100  13.7999  14.0926  14.5724

          k = 0.1875-0.3969 0.4693 ( 13967 PWs)   bands (ev):

    -7.1986  -6.5259  -6.5017  -6.3029  -5.9888  -5.8480  -5.7465  -5.5972
     1.3495   1.3758   1.4527   1.4779   1.5848   1.9793   2.1227   2.4389
     2.6282   2.7915   2.8339   3.0995   3.6370   4.0228   4.4541   4.6491
     4.7795   5.1131   5.2663   5.3445   5.4920   5.7424   5.7554   5.8759
     6.0803   6.1219   6.2036   6.7175   7.0127  12.7720  12.9556  13.1417
    13.2460  13.5274  13.6442  14.0824

          k = 0.1875-0.2526 0.1564 ( 13967 PWs)   bands (ev):

    -7.8102  -6.6099  -6.4227  -6.0384  -5.9744  -5.5656  -5.4961  -5.4691
     1.2917   1.3865   1.4648   1.6347   1.7245   1.9062   2.0462   2.1986
     2.3105   2.9624   3.0167   3.2291   3.5788   3.7860   3.8803   4.4716
     4.7679   4.9327   5.2347   5.3525   5.5814   5.6851   5.8536   6.0477
     6.1540   6.2621   6.3862   6.9409   7.0885  11.9791  12.6692  12.8643
    13.0162  13.3022  13.6655  13.9537

          k = 0.1875-0.2526 0.4693 ( 13955 PWs)   bands (ev):

    -7.3818  -6.6553  -6.3078  -6.1556  -5.8818  -5.8573  -5.7276  -5.6177
     1.1928   1.3202   1.3809   1.4685   1.5458   1.7338   1.9652   2.2167
     2.4699   2.5492   2.7043   2.9722   4.1270   4.4268   4.6666   4.8343
     4.9477   5.2135   5.3853   5.4640   5.6145   5.7058   5.8430   5.9923
     6.0850   6.1799   6.3176   6.8995   6.9967  12.4229  12.5387  12.7139
    12.9621  13.1392  13.3568  13.6565

          k = 0.1875-0.1083 0.1564 ( 13963 PWs)   bands (ev):

    -7.9255  -6.4556  -6.2138  -6.1479  -6.0437  -5.5606  -5.4918  -5.4744
     1.2159   1.2920   1.3883   1.6449   1.6605   1.7773   1.9911   2.0869
     2.1759   2.9176   2.9685   3.0617   3.7467   3.8239   4.0016   4.6185
     4.7306   5.0012   5.5028   5.6050   5.7328   5.8446   5.8644   6.0384
     6.1072   6.3502   6.5825   7.0059   7.1687  11.6003  12.6090  12.6918
    12.8091  13.0029  13.3535  13.4614

          k = 0.1875-0.1083 0.4693 ( 13937 PWs)   bands (ev):

    -7.4889  -6.7403  -6.1832  -5.9987  -5.9402  -5.8062  -5.6865  -5.6327
     1.0818   1.1985   1.3672   1.4648   1.4931   1.5814   1.8787   2.0827
     2.2392   2.4820   2.5848   2.9254   4.5841   4.6155   4.7129   5.0176
     5.2118   5.3204   5.4089   5.4540   5.6081   5.8703   5.9269   6.0433
     6.0527   6.2696   6.4553   6.9868   7.0255  12.1728  12.2799  12.3743
    12.7412  12.8928  13.1033  13.3120

          k = 0.3125 0.5413 0.1564 ( 13966 PWs)   bands (ev):

    -7.2522  -7.1184  -6.8931  -5.7317  -5.7086  -5.6669  -5.6204  -5.5431
     1.4443   1.5806   1.5845   1.7113   1.7701   2.2390   2.3003   2.4857
     2.6249   2.9805   3.0414   3.4499   3.5708   3.7793   3.9312   4.0461
     4.2479   4.6967   4.9223   5.0666   5.1696   5.2504   5.4609   5.8943
     6.1381   6.3667   6.5176   6.7128   6.8114  12.4408  13.2325  13.4168
    13.6503  14.1312  14.4117  14.7165

          k = 0.3125 0.5413 0.4693 ( 13993 PWs)   bands (ev):

    -6.8735  -6.7518  -6.5684  -6.2401  -6.1560  -5.9663  -5.6446  -5.5989
     1.3738   1.4672   1.4738   1.5890   1.6132   2.2413   2.3461   2.6376
     2.7267   2.8034   3.0582   3.2729   3.3713   3.4675   4.0360   4.7952
     4.8515   4.9966   5.1149   5.2105   5.3370   5.5586   5.7618   5.9348
     6.0464   6.0707   6.1568   6.4451   7.0346  13.1980  13.3880  13.4273
    13.6966  13.7955  13.9617  14.0849

          k = 0.3125 0.6856 0.1564 ( 13964 PWs)   bands (ev):

    -7.3699  -7.0505  -6.8035  -5.7983  -5.7590  -5.6483  -5.5703  -5.5236
     1.4357   1.5632   1.5788   1.7057   1.7604   2.1650   2.3056   2.4526
     2.6698   2.9653   3.1413   3.2658   3.4559   3.8139   3.9752   4.1456
     4.4013   4.7445   4.8597   4.9827   5.1249   5.3076   5.6002   5.9081
     6.1399   6.3227   6.5022   6.7709   6.8376  12.4760  13.0307  13.3623
    13.6655  13.9824  14.3449  14.9061

          k = 0.3125 0.6856 0.4693 ( 13978 PWs)   bands (ev):

    -6.9787  -6.6963  -6.4926  -6.3117  -6.1091  -5.9253  -5.6807  -5.5895
     1.3733   1.4475   1.4715   1.5595   1.6120   2.1702   2.2908   2.6344
     2.7215   2.7861   3.0782   3.1604   3.3904   3.6280   4.1283   4.7177
     4.8376   5.0144   5.0954   5.2357   5.4671   5.5672   5.7464   5.8977
     6.0511   6.1104   6.1625   6.5199   7.0299  13.1098  13.3059  13.3687
    13.5838  13.7407  13.8518  14.1935

          k = 0.3125-0.3248 0.1564 ( 13979 PWs)   bands (ev):

    -7.5906  -6.9379  -6.5071  -5.9840  -5.8699  -5.6127  -5.4975  -5.4767
     1.3915   1.4865   1.5482   1.6848   1.7495   2.0327   2.2076   2.3913
     2.5454   2.9616   3.0542   3.2532   3.5316   3.7182   4.0241   4.3930
     4.5048   4.7025   4.8939   5.1050   5.2895   5.5174   5.7825   5.8962
     6.1092   6.2956   6.4229   6.8676   6.9958  12.4904  12.7107  13.0795
    13.3038  13.7584  14.1131  14.5502

          k = 0.3125-0.3248 0.4693 ( 13968 PWs)   bands (ev):

    -7.1793  -6.6186  -6.4570  -6.2333  -6.0349  -5.8446  -5.7467  -5.6012
     1.3330   1.3822   1.4651   1.5004   1.5728   1.9458   2.2037   2.4559
     2.5927   2.7448   2.9049   3.1258   3.6928   4.0097   4.4464   4.4869
     4.8044   5.0841   5.1850   5.3714   5.4638   5.7562   5.8013   5.8774
     6.0565   6.1537   6.1974   6.7605   7.0057  12.7772  13.0302  13.1693
    13.2462  13.4417  13.7008  14.0774

          k = 0.3125-0.1804 0.1564 ( 13975 PWs)   bands (ev):

    -7.7428  -6.7855  -6.2415  -6.1775  -5.9501  -5.5809  -5.4715  -5.4696
     1.3310   1.4075   1.4999   1.6743   1.7465   1.9284   2.0927   2.3040
     2.3330   2.9970   3.0252   3.1487   3.7438   3.7965   3.9426   4.3268
     4.4246   5.0098   5.1229   5.3452   5.4983   5.6696   5.7641   5.9951
     6.0656   6.2898   6.3800   6.9146   7.1062  12.1572  12.7750  12.8801
    13.0276  13.4089  13.9537  14.0652

          k = 0.3125-0.1804 0.4693 ( 13955 PWs)   bands (ev):

    -7.3194  -6.6188  -6.4360  -6.0163  -6.0001  -5.9238  -5.6847  -5.6338
     1.2249   1.3700   1.4398   1.4850   1.5093   1.7686   2.1180   2.2855
     2.4956   2.5459   2.8516   3.0002   4.1861   4.2285   4.3661   4.8199
     4.8383   5.1440   5.3590   5.4135   5.4667   5.7576   5.9345   5.9458
     6.0474   6.2116   6.2164   6.9200   6.9734  12.5138  12.7403  12.8702
    13.0320  13.1711  13.5597  13.7737

          k = 0.4375 0.7578 0.1564 ( 13963 PWs)   bands (ev):

    -7.3692  -7.2025  -6.5344  -5.9709  -5.7738  -5.6835  -5.5027  -5.4761
     1.4310   1.5413   1.5754   1.6983   1.7355   2.1704   2.2939   2.4870
     2.6753   2.7558   2.9826   3.5001   3.6719   3.7382   3.9298   4.2847
     4.4452   4.5586   4.6351   5.0133   5.3501   5.4102   5.6391   5.7533
     6.1329   6.3285   6.5419   6.8004   6.9598  12.6112  12.9360  13.0147
    13.4575  14.1114  14.4554  14.6579

          k = 0.4375 0.7578 0.4693 ( 13972 PWs)   bands (ev):

    -6.9776  -6.8320  -6.3315  -6.2826  -6.1581  -5.8381  -5.7532  -5.5957
     1.3823   1.4321   1.4575   1.5314   1.5723   2.1361   2.2751   2.5493
     2.7165   2.8253   2.8852   3.4297   3.5326   3.6690   4.2444   4.3994
     4.7939   4.8610   5.0428   5.3645   5.5286   5.6939   5.7962   5.8803
     6.0444   6.1165   6.1828   6.6939   7.0114  12.9617  13.1500  13.4927
    13.5477  13.6032  13.8694  14.0256

          k = 0.4375-0.2526 0.1564 ( 13971 PWs)   bands (ev):

    -7.4920  -7.1250  -6.2596  -6.2026  -5.8257  -5.6628  -5.4670  -5.4590
     1.4100   1.5030   1.5674   1.6980   1.7363   2.0958   2.2811   2.4597
     2.5585   2.8394   2.8869   3.4173   3.8036   3.9262   4.0334   4.1464
     4.2722   4.4691   4.8416   5.1490   5.3510   5.5781   5.6072   5.8763
     5.9311   6.4253   6.4841   6.8344   7.0545  12.6406  12.8389  12.9817
    13.1225  13.9611  14.4226  14.4432

          k = 0.4375-0.2526 0.4693 ( 13970 PWs)   bands (ev):

    -7.0889  -6.7678  -6.4000  -6.1778  -6.0271  -5.9568  -5.6853  -5.6371
     1.3635   1.3980   1.4589   1.5087   1.5553   2.0102   2.3477   2.4165
     2.6440   2.7396   2.9065   3.3296   3.8649   3.8825   4.0551   4.5214
     4.6769   4.9456   4.9807   5.3763   5.5984   5.7169   5.8764   5.9069
     6.0553   6.0896   6.2167   6.8304   6.9826  12.8066  13.0838  13.3490
    13.3851  13.5129  13.7842  13.9814

          k =-0.0625-0.2526 0.1564 ( 13960 PWs)   bands (ev):

    -7.8790  -6.5295  -6.2964  -6.1106  -6.0080  -5.5534  -5.4945  -5.4737
     1.2400   1.3733   1.4123   1.5689   1.7126   1.8559   2.0382   2.1022
     2.2471   2.9121   2.9496   3.2491   3.4940   3.8938   4.0450   4.5002
     4.6753   5.0142   5.4157   5.4927   5.6830   5.7712   5.8661   6.0353
     6.1151   6.3202   6.4981   6.9521   7.1508  11.7577  12.6429  12.7076
    12.8477  13.3198  13.4609  13.6372

          k =-0.0625-0.2526 0.4693 ( 13947 PWs)   bands (ev):

    -7.4457  -6.7040  -6.2506  -6.0540  -5.9205  -5.8091  -5.7051  -5.6350
     1.1638   1.2190   1.3495   1.4661   1.5048   1.7085   1.9184   2.0508
     2.4201   2.5292   2.5727   2.9539   4.3907   4.5540   4.7191   4.8516
     5.0966   5.2894   5.4258   5.4524   5.6024   5.7951   5.8938   6.0477
     6.0945   6.2192   6.3805   6.9611   6.9955  12.1915  12.4576  12.5179
    12.8438  13.0811  13.1890  13.4030

          k =-0.0625-0.3969 0.1564 ( 13980 PWs)   bands (ev):

    -7.6767  -6.8668  -6.3554  -6.0969  -5.9089  -5.5855  -5.4889  -5.4678
     1.3685   1.4929   1.5068   1.6061   1.7213   2.0480   2.1738   2.2681
     2.5403   2.9161   2.9695   3.1772   3.7648   3.8189   3.9657   4.2867
     4.4309   4.7764   5.1405   5.1706   5.4398   5.6008   5.7607   5.9584
     6.0455   6.3426   6.3957   6.8674   7.0802  12.3000  12.7682  12.8951
    13.0712  13.8398  14.0535  14.2672

          k =-0.0625-0.3969 0.4693 ( 13964 PWs)   bands (ev):

    -7.2588  -6.5581  -6.5289  -6.1049  -5.9992  -5.8821  -5.7157  -5.6254
     1.3387   1.3670   1.3834   1.4859   1.5250   1.9258   2.1235   2.3066
     2.6042   2.6676   2.7862   3.1170   3.9544   4.1732   4.3758   4.6451
     4.7315   5.0458   5.3359   5.4555   5.5138   5.7010   5.8751   6.0191
     6.0435   6.1329   6.1900   6.8579   6.9848  12.5409  12.9135  12.9970
    13.1376  13.4513  13.6198  13.8240

          k =-0.0625-0.5413 0.1564 ( 13963 PWs)   bands (ev):

    -7.4235  -7.1878  -6.3828  -6.0948  -5.7953  -5.6794  -5.4786  -5.4619
     1.4283   1.5358   1.5594   1.6881   1.7184   2.1601   2.2921   2.5164
     2.6119   2.7594   2.8717   3.5067   3.7823   3.8433   4.0108   4.2113
     4.2769   4.4583   4.7584   5.1044   5.3748   5.4607   5.6209   5.8003
     6.0259   6.3977   6.5336   6.8056   7.0282  12.6733  12.8503  12.9624
    13.2336  14.2153  14.4153  14.5094

          k =-0.0625-0.5413 0.4693 ( 13971 PWs)   bands (ev):

    -7.0275  -6.8175  -6.3707  -6.2143  -6.0958  -5.8930  -5.7186  -5.6183
     1.3878   1.4266   1.4478   1.4983   1.5562   2.0893   2.3090   2.4644
     2.7042   2.8031   2.8466   3.4666   3.6743   3.7656   4.1717   4.4049
     4.7330   4.7847   5.0742   5.3743   5.6075   5.7175   5.8060   5.9214
     6.0477   6.0931   6.2018   6.7840   6.9936  12.8699  13.0696  13.4392
    13.4581  13.6891  13.8417  13.9145

          k =-0.0625 0.4691 0.1564 ( 13984 PWs)   bands (ev):

    -7.5500  -7.0383  -6.3728  -6.0924  -5.8522  -5.6372  -5.4766  -5.4643
     1.3994   1.4900   1.5592   1.6919   1.7464   2.0574   2.2523   2.4140
     2.5311   2.8979   2.9792   3.3058   3.6884   3.8254   4.1268   4.2226
     4.3216   4.5574   4.9070   5.1609   5.3230   5.5629   5.7362   5.8081
     6.0168   6.3785   6.4565   6.8526   7.0407  12.5562  12.7912  12.9919
    13.2029  13.8463  14.2548  14.4963

          k =-0.0625 0.4691 0.4693 ( 13965 PWs)   bands (ev):

    -7.1421  -6.6961  -6.4363  -6.1568  -6.0677  -5.8960  -5.7135  -5.6182
     1.3415   1.3927   1.4616   1.5140   1.5516   1.9690   2.2778   2.4414
     2.6139   2.7162   2.9147   3.2255   3.7923   3.9601   4.2346   4.5032
     4.7520   4.9942   5.0807   5.3726   5.5335   5.7442   5.8556   5.9070
     6.0476   6.1209   6.2090   6.8127   6.9915  12.7703  13.0880  13.2341
    13.2974  13.4541  13.7504  14.0175

          k =-0.0625 0.3248 0.1564 ( 13973 PWs)   bands (ev):

    -7.7876  -6.6950  -6.3275  -6.0934  -5.9721  -5.5706  -5.4839  -5.4680
     1.3068   1.3867   1.4787   1.6630   1.7348   1.9012   2.0596   2.2414
     2.3081   2.9901   3.0207   3.1699   3.6798   3.7932   3.8899   4.4029
     4.5749   5.0563   5.1599   5.3859   5.5908   5.6346   5.8092   6.0109
     6.1433   6.2935   6.3506   6.9322   7.1050  12.0411  12.7141  12.8723
    13.0163  13.3100  13.7802  13.9849

          k =-0.0625 0.3248 0.4693 ( 13951 PWs)   bands (ev):

    -7.3609  -6.6425  -6.3705  -6.0848  -5.9244  -5.8921  -5.7027  -5.6241
     1.1972   1.3452   1.4105   1.4722   1.5293   1.7273   2.0363   2.2481
     2.4594   2.5373   2.7764   2.9772   4.1552   4.3774   4.5097   4.8377
     4.9184   5.2348   5.3518   5.4215   5.5292   5.7759   5.8635   5.9827
     6.0600   6.2044   6.2743   6.9175   6.9860  12.4590  12.6098  12.7634
    12.9804  13.1244  13.4505  13.6994

          k =-0.0625 0.1804 0.1564 ( 13963 PWs)   bands (ev):

    -7.9490  -6.3881  -6.2567  -6.1195  -6.0467  -5.5610  -5.4981  -5.4770
     1.1962   1.2832   1.3630   1.5923   1.6780   1.7571   1.9911   2.0668
     2.1542   2.8873   2.9394   3.0594   3.7230   3.8556   4.0534   4.6475
     4.8391   4.9466   5.4813   5.6188   5.7543   5.8945   5.9302   6.0319
     6.1546   6.3314   6.6499   7.0308   7.1737  11.5122  12.5751  12.6474
    12.7555  12.9962  13.2482  13.3692

          k =-0.0625 0.1804 0.4693 ( 13933 PWs)   bands (ev):

    -7.5107  -6.7577  -6.1332  -6.0274  -5.9172  -5.7776  -5.6935  -5.6337
     1.0674   1.1581   1.3443   1.4530   1.4944   1.5814   1.8484   2.0310
     2.2116   2.4781   2.5489   2.9162   4.6021   4.6880   4.8220   5.0319
     5.2324   5.3077   5.4082   5.5268   5.6601   5.7880   5.9761   6.0152
     6.1190   6.2759   6.4973   6.9974   7.0366  12.0972  12.2329  12.3094
    12.6974  12.8718  13.0138  13.2282

          k =-0.0625 0.0361 0.1564 ( 13976 PWs)   bands (ev):

    -8.0200  -6.2246  -6.1917  -6.1572  -6.0677  -5.5643  -5.5095  -5.5028
     1.1503   1.2391   1.2543   1.5034   1.6726   1.6838   2.0099   2.0246
     2.0662   2.8254   2.8731   2.9207   3.8601   3.9361   4.1304   4.8337
     4.9158   4.9505   5.5250   5.5308   5.6652   6.0848   6.0891   6.1425
     6.3208   6.3716   6.7593   7.1728   7.2126  11.2143  12.4709  12.5323
    12.5526  12.9301  12.9332  13.0347

          k =-0.0625 0.0361 0.4693 ( 13915 PWs)   bands (ev):

    -7.5769  -6.8120  -6.0110  -5.9822  -5.9335  -5.7062  -5.6926  -5.6490
     1.0111   1.0317   1.2778   1.4473   1.4774   1.5128   1.8654   1.8871
     2.0128   2.4644   2.4803   2.8819   4.7758   4.9318   5.0083   5.1801
     5.1989   5.3489   5.4154   5.6424   5.7970   5.8214   5.9163   5.9658
     6.3020   6.3255   6.5915   7.0741   7.0829  11.8995  12.0719  12.0731
    12.5288  12.7527  12.7566  12.9673

          k =-0.1875-0.4691 0.1564 ( 13983 PWs)   bands (ev):

    -7.4869  -6.9965  -6.6633  -5.8882  -5.8138  -5.6209  -5.5395  -5.4939
     1.4235   1.5460   1.5573   1.6770   1.7381   2.1252   2.2529   2.4464
     2.6519   2.9468   3.0746   3.2702   3.4180   3.8133   3.9583   4.3276
     4.5517   4.6915   4.7803   5.0094   5.1950   5.4035   5.6772   5.9236
     6.1935   6.2348   6.4847   6.8126   6.9151  12.5261  12.8043  13.2196
    13.4812  13.9904  14.3063  14.7279

          k =-0.1875-0.4691 0.4693 ( 13969 PWs)   bands (ev):

    -7.0852  -6.6467  -6.4459  -6.3213  -6.0710  -5.8642  -5.7294  -5.5908
     1.3703   1.4228   1.4723   1.5038   1.5917   2.1013   2.2033   2.5484
     2.7050   2.7840   2.9211   3.2418   3.4652   3.8050   4.2813   4.6187
     4.7591   5.0260   5.1615   5.3348   5.4673   5.6590   5.7954   5.8683
     6.0527   6.1229   6.1704   6.6392   7.0199  12.9374  13.1391  13.3017
    13.4213  13.6630  13.7882  14.1561

          k =-0.1875-0.6134 0.1564 ( 13972 PWs)   bands (ev):

    -7.3619  -7.1401  -6.6822  -5.8640  -5.7669  -5.6669  -5.5373  -5.5007
     1.4334   1.5512   1.5814   1.7037   1.7536   2.1656   2.3082   2.4492
     2.6878   2.8366   3.1353   3.3252   3.5535   3.7548   3.9687   4.2180
     4.4539   4.6379   4.7798   4.9255   5.2503   5.3850   5.5916   5.8364
     6.1813   6.2848   6.5255   6.7950   6.8787  12.5254  13.0061  13.1681
    13.6827  13.9493  14.4245  14.8585

          k =-0.1875-0.6134 0.4693 ( 13959 PWs)   bands (ev):

    -6.9709  -6.7770  -6.3919  -6.3118  -6.1478  -5.8739  -5.7183  -5.5870
     1.3768   1.4403   1.4646   1.5572   1.5917   2.1668   2.2686   2.6147
     2.7061   2.8208   2.9711   3.2732   3.4587   3.6432   4.1631   4.5912
     4.8260   4.9201   5.0825   5.3414   5.4615   5.5963   5.8105   5.8572
     6.0460   6.1406   6.1517   6.5916   7.0239  13.0416  13.2611  13.4264
    13.5728  13.6683  13.8591  14.1367

          k =-0.1875 0.3969 0.1564 ( 13980 PWs)   bands (ev):

    -7.6113  -6.8418  -6.6207  -5.9253  -5.8710  -5.5962  -5.5170  -5.4887
     1.3882   1.4942   1.5372   1.6725   1.7429   2.0332   2.1753   2.3849
     2.5741   2.9941   3.0763   3.2550   3.4267   3.6909   3.9143   4.5345
     4.6608   4.7955   4.8750   4.9928   5.2580   5.4597   5.8406   5.9892
     6.1560   6.2366   6.3914   6.8723   6.9553  12.4521  12.6666  13.1774
    13.3225  13.7228  14.0651  14.5817

          k =-0.1875 0.3969 0.4693 ( 13967 PWs)   bands (ev):

    -7.1985  -6.5555  -6.4608  -6.3139  -5.9891  -5.8517  -5.7438  -5.5962
     1.3370   1.3748   1.4668   1.4801   1.5915   1.9479   2.1487   2.4455
     2.6051   2.7861   2.8739   3.0699   3.6390   4.0253   4.4581   4.6247
     4.8290   5.1179   5.2424   5.3299   5.5213   5.6816   5.7921   5.8604
     6.0750   6.1371   6.2109   6.7172   7.0132  12.8061  12.9377  13.1511
    13.2374  13.4707  13.6618  14.1049

          k =-0.1875 0.2526 0.1564 ( 13967 PWs)   bands (ev):

    -7.8102  -6.6090  -6.4239  -6.0434  -5.9690  -5.5603  -5.5004  -5.4703
     1.2897   1.4072   1.4603   1.6017   1.7205   1.9294   2.0561   2.1760
     2.3379   2.9387   3.0045   3.2654   3.5202   3.8074   3.9193   4.4709
     4.7312   4.9619   5.2368   5.3129   5.6133   5.6886   5.8265   6.0622
     6.1748   6.2440   6.3958   6.9288   7.0947  11.9755  12.6725  12.8227
    12.9936  13.4191  13.6467  13.9486

          k =-0.1875 0.2526 0.4693 ( 13955 PWs)   bands (ev):

    -7.3819  -6.6533  -6.3154  -6.1513  -5.8947  -5.8339  -5.7345  -5.6201
     1.2124   1.3036   1.3655   1.4712   1.5362   1.7771   1.9477   2.1876
     2.4982   2.5869   2.6524   2.9824   4.1301   4.4274   4.7025   4.7872
     4.9236   5.2248   5.4026   5.4622   5.5930   5.7278   5.8410   6.0101
     6.1008   6.1618   6.3103   6.8973   6.9954  12.3674  12.5835  12.7122
    12.9674  13.2058  13.3222  13.6327

          k =-0.1875 0.1083 0.1564 ( 13963 PWs)   bands (ev):

    -7.9255  -6.4534  -6.2121  -6.1628  -6.0325  -5.5528  -5.4946  -5.4796
     1.2054   1.3473   1.3634   1.5522   1.7078   1.7915   2.0239   2.0715
     2.1833   2.8904   2.9134   3.1808   3.5491   3.9332   4.0890   4.6072
     4.6794   5.0160   5.5271   5.5410   5.6884   5.8947   5.9189   6.0210
     6.1026   6.3479   6.5992   6.9822   7.1794  11.5961  12.5755  12.6704
    12.7578  13.2243  13.3196  13.4106

          k =-0.1875 0.1083 0.4693 ( 13937 PWs)   bands (ev):

    -7.4889  -6.7392  -6.1892  -5.9940  -5.9503  -5.7800  -5.6923  -5.6428
     1.1261   1.1544   1.3347   1.4547   1.4934   1.6559   1.9259   1.9389
     2.3282   2.5014   2.5357   2.9315   4.5904   4.6142   4.7636   4.9149
     5.2080   5.3454   5.4436   5.4578   5.5860   5.8516   5.9026   6.0668
     6.1049   6.2573   6.4531   6.9855   7.0171  12.0871  12.3623  12.3659
    12.7503  12.9823  13.0799  13.2481

          k =-0.3125-0.6856 0.1564 ( 13964 PWs)   bands (ev):

    -7.3700  -7.0504  -6.8036  -5.7996  -5.7593  -5.6411  -5.5778  -5.5216
     1.4372   1.5675   1.5763   1.7017   1.7560   2.1757   2.2972   2.4680
     2.6549   2.9772   3.1222   3.2586   3.4748   3.8381   3.9556   4.1289
     4.4057   4.7824   4.8301   4.9538   5.1723   5.2893   5.5925   5.9104
     6.1468   6.3146   6.5093   6.7629   6.8422  12.4758  13.0235  13.3782
    13.6242  14.0335  14.3653  14.8600

          k =-0.3125-0.6856 0.4693 ( 13978 PWs)   bands (ev):

    -6.9791  -6.6933  -6.4983  -6.3083  -6.1092  -5.9252  -5.6808  -5.5898
     1.3727   1.4507   1.4751   1.5519   1.6116   2.1829   2.2786   2.6421
     2.7165   2.7823   3.0436   3.2232   3.3722   3.6196   4.1294   4.7149
     4.8569   4.9612   5.1229   5.2531   5.4551   5.5642   5.7597   5.9009
     6.0502   6.1019   6.1608   6.5212   7.0298  13.1128  13.2692  13.3947
    13.5842  13.7318  13.8901  14.1663

          k =-0.3125 0.3248 0.1564 ( 13979 PWs)   bands (ev):

    -7.5906  -6.9374  -6.5079  -5.9889  -5.8649  -5.6031  -5.5094  -5.4740
     1.4011   1.5198   1.5304   1.6418   1.7269   2.0872   2.2048   2.3787
     2.6038   2.9153   3.0063   3.2226   3.5909   3.8226   3.9280   4.4262
     4.5043   4.6282   4.9091   5.1218   5.3279   5.5041   5.7097   5.9473
     6.1170   6.2874   6.4434   6.8442   7.0068  12.4750  12.7133  13.0399
    13.2696  13.9540  14.1636  14.5123

          k =-0.3125 0.3248 0.4693 ( 13968 PWs)   bands (ev):

    -7.1798  -6.5959  -6.4939  -6.2190  -6.0341  -5.8344  -5.7550  -5.6036
     1.3641   1.3884   1.4373   1.4833   1.5592   2.0120   2.1496   2.4348
     2.6564   2.7401   2.8348   3.1877   3.6881   4.0020   4.4460   4.5093
     4.7155   5.0576   5.2388   5.3983   5.4847   5.7251   5.8168   5.9233
     6.0495   6.1309   6.1825   6.7600   7.0045  12.7263  13.0233  13.1608
    13.2619  13.5885  13.6695  14.0161

          k =-0.3125 0.1804 0.1564 ( 13975 PWs)   bands (ev):

    -7.7428  -6.7846  -6.2399  -6.1869  -5.9429  -5.5694  -5.4788  -5.4742
     1.3323   1.4697   1.4847   1.5809   1.7192   2.0035   2.1606   2.1683
     2.4650   2.9373   2.9500   3.1844   3.6616   3.9430   3.9994   4.2689
     4.3993   4.9675   5.1467   5.3708   5.4387   5.6945   5.7684   6.0000
     6.0618   6.3284   6.3770   6.8871   7.1174  12.1421  12.7715  12.8350
    12.9479  13.6986  13.9704  14.0254

          k =-0.3125 0.1804 0.4693 ( 13955 PWs)   bands (ev):

    -7.3197  -6.6020  -6.4625  -6.0120  -6.0061  -5.8988  -5.6901  -5.6419
     1.3063   1.3179   1.3686   1.4960   1.4986   1.8580   2.0990   2.1916
     2.5607   2.6258   2.7267   3.0543   4.1907   4.2513   4.3756   4.7204
     4.8384   5.0810   5.3703   5.5143   5.5235   5.6962   5.9004   6.0366
     6.0860   6.1604   6.1913   6.9147   6.9699  12.4128  12.8106  12.8427
    13.0497  13.3312  13.5616  13.6620

          k =-0.4375 0.2526 0.1564 ( 13971 PWs)   bands (ev):

    -7.4920  -7.1247  -6.2590  -6.2056  -5.8237  -5.6586  -5.4700  -5.4601
     1.4234   1.5341   1.5400   1.6672   1.7159   2.1373   2.2942   2.4690
     2.5698   2.8178   2.8570   3.3742   3.9595   3.9640   4.0269   4.0533
     4.2656   4.3826   4.9015   5.1507   5.3586   5.5628   5.5874   5.8816
     5.9386   6.4233   6.5066   6.8157   7.0596  12.6103  12.8671  12.9585
    13.0956  14.2055  14.3341  14.4635

          k =-0.4375 0.2526 0.4693 ( 13970 PWs)   bands (ev):

    -7.0901  -6.7608  -6.4185  -6.1653  -6.0254  -5.9537  -5.6875  -5.6397
     1.3880   1.4227   1.4325   1.4842   1.5409   2.0516   2.3163   2.3982
     2.6914   2.7548   2.8414   3.3909   3.8335   3.8974   4.0511   4.5177
     4.6770   4.7654   5.1547   5.3850   5.6210   5.6943   5.8523   5.9429
     6.0629   6.0725   6.2045   6.8292   6.9813  12.7800  13.0433  13.3490
    13.3652  13.7190  13.8219  13.8385

     the Fermi energy is     7.0982 ev

!    total energy              =    -347.85279258 Ry
     Harris-Foulkes estimate   =    -347.85271787 Ry
     estimated scf accuracy    <       0.00004483 Ry

     The total energy is the sum of the following terms:

     one-electron contribution =    -107.78969565 Ry
     hartree contribution      =     108.71496115 Ry
     xc contribution           =    -111.60022691 Ry
     ewald contribution        =    -237.16265706 Ry
     smearing contrib. (-TS)   =      -0.01517411 Ry

     convergence has been achieved in  22 iterations

     Writing output data file aln.save

     init_run     :      9.32s CPU     10.19s WALL (       1 calls)
     electrons    :    342.03s CPU    367.26s WALL (       1 calls)

     Called by init_run:
     wfcinit      :      8.37s CPU      9.07s WALL (       1 calls)
     potinit      :      0.26s CPU      0.28s WALL (       1 calls)

     Called by electrons:
     c_bands      :    296.29s CPU    318.14s WALL (      22 calls)
     sum_band     :     43.03s CPU     46.24s WALL (      22 calls)
     v_of_rho     :      0.48s CPU      0.50s WALL (      23 calls)
     newd         :      2.16s CPU      2.33s WALL (      23 calls)
     mix_rho      :      0.08s CPU      0.10s WALL (      22 calls)

     Called by c_bands:
     init_us_2    :      1.57s CPU      1.62s WALL (    3240 calls)
     cegterg      :    290.51s CPU    312.08s WALL (    1584 calls)

     Called by sum_band:
     sum_band:bec :      0.69s CPU      0.70s WALL (    1584 calls)
     addusdens    :      2.07s CPU      2.30s WALL (      22 calls)

     Called by *egterg:
     h_psi        :    178.56s CPU    188.59s WALL (    5167 calls)
     s_psi        :     29.82s CPU     29.87s WALL (    5167 calls)
     g_psi        :      0.18s CPU      0.18s WALL (    3511 calls)
     cdiaghg      :     25.84s CPU     29.16s WALL (    5095 calls)

     Called by h_psi:
     h_psi:pot    :    178.13s CPU    188.15s WALL (    5167 calls)
     h_psi:calbec :     43.47s CPU     46.85s WALL (    5167 calls)
     vloc_psi     :    102.96s CPU    109.48s WALL (    5167 calls)
     add_vuspsi   :     31.67s CPU     31.80s WALL (    5167 calls)

     General routines
     calbec       :     60.92s CPU     65.91s WALL (    6751 calls)
     fft          :      1.05s CPU      1.33s WALL (     364 calls)
     ffts         :      0.04s CPU      0.05s WALL (      45 calls)
     fftw         :    116.94s CPU    124.44s WALL (  398300 calls)
     interpolate  :      0.12s CPU      0.15s WALL (      45 calls)
     davcio       :      0.00s CPU      0.07s WALL (      72 calls)

     Parallel routines
     fft_scatter  :     55.01s CPU     60.15s WALL (  398709 calls)

     PWSCF        :  5m52.64s CPU     6m19.04s WALL


   This run was terminated on:  22:50:55   7Aug2024            

=------------------------------------------------------------------------------=
   JOB DONE.
=------------------------------------------------------------------------------=
