
     Program PWSCF v.6.0 (svn rev. 13079) starts on  7Aug2024 at 17:31:18 

     This program is part of the open-source Quantum ESPRESSO suite
     for quantum simulation of materials; please cite
         "P. Giannozzi et al., J. Phys.:Condens. Matter 21 395502 (2009);
          URL http://www.quantum-espresso.org", 
     in publications or presentations arising from this work. More details at
     http://www.quantum-espresso.org/quote

     Parallel version (MPI), running on    32 processors
     R & G space division:  proc/nbgrp/npool/nimage =      32
     Waiting for input...
     Reading input from standard input
Warning: card WF_COLLECT=.TRUE ignored

     Current dimensions of program PWSCF are:
     Max number of different atomic species (ntypx) = 10
     Max number of k-points (npk) =  40000
     Max angular momentum in pseudopotentials (lmaxx) =  3

     Atomic positions and unit cell read from directory:
     ./tmp/aln.save/

               file Mg.pbesol-spnl-rrkjus_psl.1.0.0.UPF: wavefunction(s)  2P renormalized

     Subspace diagonalization in iterative solution of the eigenvalue problem:
     one sub-group per band group will be used
     ELPA distributed-memory algorithm (size of sub-group:  4*  4 procs)


     Parallelization info
     --------------------
     sticks:   dense  smooth     PW     G-vecs:    dense   smooth      PW
     Min         168      97     26                 7935     3520     512
     Max         169      98     27                 7938     3523     517
     Sum        5377    3115    859               253969   112685   16487



     bravais-lattice index     =            0
     lattice parameter (alat)  =      11.9084  a.u.
     unit-cell volume          =    1165.8561 (a.u.)^3
     number of atoms/cell      =           16
     number of atomic types    =            3
     number of electrons       =        71.00
     number of Kohn-Sham states=           64
     kinetic-energy cutoff     =      80.0000  Ry
     charge density cutoff     =     550.0000  Ry
     Exchange-correlation      = PBESOL ( 1  4 10  8 0 0)

     celldm(1)=  11.908405  celldm(2)=   0.000000  celldm(3)=   0.000000
     celldm(4)=   0.000000  celldm(5)=   0.000000  celldm(6)=   0.000000

     crystal axes: (cart. coord. in units of alat)
               a(1) = (   1.000000  -0.000108  -0.000055 )  
               a(2) = (  -0.500093   0.866187   0.000000 )  
               a(3) = (  -0.000040  -0.000023   0.797076 )  

     reciprocal axes: (cart. coord. in units 2 pi/alat)
               b(1) = (  1.000062  0.577386  0.000067 )  
               b(2) = (  0.000124  1.154557  0.000034 )  
               b(3) = (  0.000069  0.000040  1.254586 )  


     PseudoPot. # 1 for Al read from file:
     pseudo/Al.pbesol-n-rrkjus_psl.1.0.0.UPF
     MD5 check sum: dbcefca01057e646ce9c389674ce64eb
     Pseudo is Ultrasoft + core correction, Zval =  3.0
     Generated using "atomic" code by A. Dal Corso  v.6.3
     Using radial grid of 1135 points,  6 beta functions with: 
                l(1) =   0
                l(2) =   0
                l(3) =   1
                l(4) =   1
                l(5) =   2
                l(6) =   2
     Q(r) pseudized with 0 coefficients 


     PseudoPot. # 2 for  N read from file:
     pseudo/N.pbesol-n-rrkjus_psl.1.0.0.UPF
     MD5 check sum: 006b6b9dfb5634708511e9f3c875aba4
     Pseudo is Ultrasoft + core correction, Zval =  5.0
     Generated using "atomic" code by A. Dal Corso  v.6.3MaX
     Using radial grid of 1085 points,  4 beta functions with: 
                l(1) =   0
                l(2) =   0
                l(3) =   1
                l(4) =   1
     Q(r) pseudized with 0 coefficients 


     PseudoPot. # 3 for Mg read from file:
     pseudo/Mg.pbesol-spnl-rrkjus_psl.1.0.0.UPF
     MD5 check sum: 8c1d17886ddcb5f8688becc8b90c6406
     Pseudo is Ultrasoft + core correction, Zval = 10.0
     Generated using "atomic" code by A. Dal Corso  v.6.3
     Using radial grid of 1129 points,  4 beta functions with: 
                l(1) =   0
                l(2) =   0
                l(3) =   1
                l(4) =   1
     Q(r) pseudized with 0 coefficients 


     atomic species   valence    mass     pseudopotential
        Al             3.00    26.98150     Al( 1.00)
        N              5.00    14.00670      N( 1.00)
        Mg            10.00    24.30500     Mg( 1.00)

      2 Sym. Ops. (no inversion) found



   Cartesian axes

     site n.     atom                  positions (alat units)
         1           Mg  tau(   1) = (   0.2503371   0.1445328   0.3933733  )
         2           Al  tau(   2) = (   0.0004577   0.5777227   0.3977931  )
         3           Al  tau(   3) = (   0.7501371   0.1434942   0.3979522  )
         4           Al  tau(   4) = (   0.4993377   0.5778916   0.3979522  )
         5           Al  tau(   5) = (  -0.0034785   0.2904105   0.7964220  )
         6           Al  tau(   6) = (  -0.2503291   0.7179683   0.7964220  )
         7           Al  tau(   7) = (   0.5027773   0.2902780   0.7963777  )
         8           Al  tau(   8) = (   0.2497372   0.7216432   0.7955407  )
         9           N   tau(   9) = (   0.2493888   0.1439853   0.7269874  )
        10           N   tau(  10) = (   0.0012951   0.5782062   0.7007104  )
        11           N   tau(  11) = (   0.7498382   0.1425689   0.7005731  )
        12           N   tau(  12) = (   0.4983869   0.5780953   0.7005731  )
        13           N   tau(  13) = (  -0.0158428   0.2984243   0.2984421  )
        14           N   tau(  14) = (  -0.2495711   0.7032536   0.2984421  )
        15           N   tau(  15) = (   0.5164200   0.2981547   0.2985358  )
        16           N   tau(  16) = (   0.2499197   0.7217485   0.3031796  )

     number of k points=   121  gaussian smearing, width (Ry)=  0.0200

     Number of k-points >= 100: set verbosity='high' to print them.

     Dense  grid:   253969 G-vectors     FFT dimensions: (  90,  90,  72)

     Smooth grid:   112685 G-vectors     FFT dimensions: (  72,  72,  60)

     Estimated max dynamical RAM per process >      10.20Mb

     Estimated total allocated dynamical RAM >     326.46Mb

     The potential is recalculated from file :
     ./tmp/aln.save/charge-density.dat

     Starting wfc are   65 randomized atomic wfcs

     Band Structure Calculation
     Davidson diagonalization with overlap

     ethr =  1.41E-06,  avg # of iterations =  7.7

     total cpu time spent up to now is      140.8 secs

     End of band structure calculation

     Number of k-points >= 100: set verbosity='high' to print the bands.

     Writing output data file aln.save

     init_run     :      1.13s CPU      1.15s WALL (       1 calls)
     electrons    :    137.67s CPU    138.87s WALL (       1 calls)

     Called by init_run:
     wfcinit      :      0.00s CPU      0.00s WALL (       1 calls)
     potinit      :      0.06s CPU      0.06s WALL (       1 calls)

     Called by electrons:
     c_bands      :    137.67s CPU    138.87s WALL (       1 calls)
     v_of_rho     :      0.02s CPU      0.02s WALL (       1 calls)
     newd         :      0.09s CPU      0.10s WALL (       1 calls)

     Called by c_bands:
     init_us_2    :      0.05s CPU      0.07s WALL (     121 calls)
     cegterg      :    127.67s CPU    128.61s WALL (     121 calls)

     Called by sum_band:

     Called by *egterg:
     h_psi        :     41.01s CPU     41.46s WALL (    1179 calls)
     s_psi        :      9.06s CPU      9.08s WALL (    1179 calls)
     g_psi        :      0.08s CPU      0.08s WALL (     937 calls)
     cdiaghg      :     48.19s CPU     48.63s WALL (    1058 calls)

     Called by h_psi:
     h_psi:pot    :     40.84s CPU     41.29s WALL (    1179 calls)
     h_psi:calbec :     11.58s CPU     11.80s WALL (    1179 calls)
     vloc_psi     :     20.35s CPU     20.57s WALL (    1179 calls)
     add_vuspsi   :      8.90s CPU      8.91s WALL (    1179 calls)

     General routines
     calbec       :     11.57s CPU     11.80s WALL (    1179 calls)
     fft          :      0.02s CPU      0.02s WALL (      13 calls)
     ffts         :      0.01s CPU      0.01s WALL (       1 calls)
     fftw         :     18.62s CPU     18.82s WALL (  107846 calls)
     interpolate  :      0.01s CPU      0.01s WALL (       1 calls)
     davcio       :      0.09s CPU      0.16s WALL (     121 calls)

     Parallel routines
     fft_scatter  :      5.86s CPU      5.92s WALL (  107860 calls)

     PWSCF        :  2m19.88s CPU     2m21.13s WALL


   This run was terminated on:  17:33:39   7Aug2024            

=------------------------------------------------------------------------------=
   JOB DONE.
=------------------------------------------------------------------------------=
