
     Program BANDS v.6.0 (svn rev. 13079) starts on  7Aug2024 at 17:33:40 

     This program is part of the open-source Quantum ESPRESSO suite
     for quantum simulation of materials; please cite
         "P. Giannozzi et al., J. Phys.:Condens. Matter 21 395502 (2009);
          URL http://www.quantum-espresso.org", 
     in publications or presentations arising from this work. More details at
     http://www.quantum-espresso.org/quote

     Parallel version (MPI), running on    32 processors
     R & G space division:  proc/nbgrp/npool/nimage =      32

     Reading data from directory:
     ./tmp/aln.save

   Info: using nr1, nr2, nr3 values from input

   Info: using nr1, nr2, nr3 values from input

     IMPORTANT: XC functional enforced from input :
     Exchange-correlation      = PBESOL ( 1  4 10  8 0 0)
     Any further DFT definition will be discarded
     Please, verify this is what you really want

               file Mg.pbesol-spnl-rrkjus_psl.1.0.0.UPF: wavefunction(s)  2P renormalized

     Parallelization info
     --------------------
     sticks:   dense  smooth     PW     G-vecs:    dense   smooth      PW
     Min         168      97     26                 7935     3520     512
     Max         169      98     27                 7938     3523     517
     Sum        5377    3115    859               253969   112685   16487

     high-symmetry point:  0.0000 0.0000 0.0000   x coordinate   0.0000
     high-symmetry point:  0.0000 0.0000 0.6273   x coordinate   0.6273
     high-symmetry point:  0.6667 0.0001 0.6273   x coordinate   1.2940
     high-symmetry point:  0.6667 0.0001 0.0000   x coordinate   1.9213
     high-symmetry point:  0.0000 0.0000 0.0000   x coordinate   2.5879
     high-symmetry point:  0.5000 0.2887 0.0000   x coordinate   3.1653
     high-symmetry point:  0.5001 0.2887 0.6273   x coordinate   3.7926

     Plottable bands (eV) written to file ../data/AlN_Mg_221/bands/bands.gnu
     Bands written to file ../data/AlN_Mg_221/bands/bands

 **************************************************************************

                    xk=(   0.00000,   0.00000,   0.00000  )

     point group C_s (m)    
     there are  2 classes
     the character table:

       E     s    
A'     1.00  1.00
A''    1.00 -1.00

     the symmetry operations in each class and the name of the first element:

     E        1
                                                                 
     s        2
                                                                 

     Band symmetry, C_s (m)     point group:

     e(  1 -  1) =    -65.63898  eV     1   --> A'             
     e(  2 -  2) =    -32.61107  eV     1   --> A'             
     e(  3 -  3) =    -32.60977  eV     1   --> A'             
     e(  4 -  4) =    -32.60836  eV     1   --> A''            
     e(  5 -  5) =     -8.28818  eV     1   --> A'             
     e(  6 -  6) =     -6.44699  eV     1   --> A'             
     e(  7 -  7) =     -6.44315  eV     1   --> A''            
     e(  8 -  8) =     -6.36099  eV     1   --> A'             
     e(  9 -  9) =     -6.18077  eV     1   --> A'             
     e( 10 - 10) =     -5.75614  eV     1   --> A'             
     e( 11 - 11) =     -5.65904  eV     1   --> A'             
     e( 12 - 12) =     -5.64400  eV     1   --> A''            
     e( 13 - 13) =      0.88172  eV     1   --> A'             
     e( 14 - 14) =      1.28470  eV     1   --> A'             
     e( 15 - 15) =      1.28684  eV     1   --> A''            
     e( 16 - 16) =      1.55910  eV     1   --> A'             
     e( 17 - 17) =      2.55968  eV     1   --> A''            
     e( 18 - 18) =      2.57156  eV     1   --> A'             
     e( 19 - 19) =      3.14209  eV     1   --> A'             
     e( 20 - 20) =      3.30548  eV     1   --> A'             
     e( 21 - 21) =      3.31571  eV     1   --> A''            
     e( 22 - 22) =      3.85076  eV     1   --> A'             
     e( 23 - 23) =      4.53027  eV     1   --> A''            
     e( 24 - 24) =      4.58507  eV     1   --> A''            
     e( 25 - 25) =      4.58701  eV     1   --> A'             
     e( 26 - 26) =      5.06729  eV     1   -->   ?
     e( 27 - 27) =      5.06772  eV     1   -->   ?
     e( 28 - 28) =      5.26702  eV     1   --> A'             
     e( 29 - 29) =      5.76606  eV     1   --> A''            
     e( 30 - 30) =      5.77372  eV     1   --> A'             
     e( 31 - 31) =      5.91433  eV     1   --> A''            
     e( 32 - 32) =      6.13167  eV     1   -->   ?
     e( 33 - 33) =      6.13217  eV     1   -->   ?
     e( 34 - 34) =      6.67797  eV     1   --> A'             
     e( 35 - 35) =      6.69311  eV     1   --> A'             
     e( 36 - 36) =      6.70060  eV     1   --> A''            
     e( 37 - 37) =     10.63218  eV     1   --> A'             
     e( 38 - 38) =     12.23027  eV     1   --> A'             
     e( 39 - 39) =     12.23528  eV     1   --> A''            
     e( 40 - 40) =     12.41213  eV     1   --> A'             
     e( 41 - 41) =     12.47092  eV     1   --> A'             
     e( 42 - 42) =     12.48273  eV     1   --> A''            
     e( 43 - 43) =     12.70015  eV     1   --> A'             
     e( 44 - 44) =     13.77353  eV     1   --> A'             
     e( 45 - 45) =     14.74860  eV     1   --> A'             
     e( 46 - 46) =     14.75334  eV     1   --> A''            
     e( 47 - 47) =     15.07325  eV     1   --> A'             
     e( 48 - 48) =     16.52048  eV     1   --> A''            
     e( 49 - 49) =     16.53414  eV     1   --> A'             
     e( 50 - 50) =     16.89053  eV     1   --> A'             
     e( 51 - 51) =     17.07680  eV     1   --> A'             
     e( 52 - 52) =     17.27948  eV     1   --> A''            
     e( 53 - 53) =     17.48996  eV     1   --> A''            
     e( 54 - 54) =     17.50026  eV     1   --> A'             
     e( 55 - 55) =     18.00277  eV     1   --> A''            
     e( 56 - 56) =     18.00784  eV     1   --> A'             
     e( 57 - 57) =     18.57678  eV     1   --> A''            
     e( 58 - 58) =     18.59171  eV     1   --> A'             
     e( 59 - 59) =     18.68907  eV     1   --> A'             
     e( 60 - 60) =     19.11580  eV     1   --> A''            
     e( 61 - 61) =     19.11981  eV     1   --> A'             
     e( 62 - 62) =     19.45743  eV     1   --> A'             
     e( 63 - 63) =     20.08794  eV     1   --> A'             
     e( 64 - 64) =     20.09589  eV     1   --> A''            

 **************************************************************************

 **************************************************************************

                    xk=(   0.00000,   0.00000,   0.03136  )

     Band symmetry, C_s (m)     point group:

     e(  1 -  1) =    -65.63898  eV     1   --> A'             
     e(  2 -  2) =    -32.61106  eV     1   --> A'             
     e(  3 -  3) =    -32.60977  eV     1   --> A'             
     e(  4 -  4) =    -32.60835  eV     1   --> A''            
     e(  5 -  5) =     -8.28587  eV     1   --> A'             
     e(  6 -  6) =     -6.44582  eV     1   --> A'             
     e(  7 -  7) =     -6.44202  eV     1   --> A''            
     e(  8 -  8) =     -6.36149  eV     1   --> A'             
     e(  9 -  9) =     -6.18418  eV     1   --> A'             
     e( 10 - 10) =     -5.75646  eV     1   --> A'             
     e( 11 - 11) =     -5.65996  eV     1   --> A'             
     e( 12 - 12) =     -5.64488  eV     1   --> A''            
     e( 13 - 13) =      0.88978  eV     1   --> A'             
     e( 14 - 14) =      1.28053  eV     1   --> A'             
     e( 15 - 15) =      1.28264  eV     1   --> A''            
     e( 16 - 16) =      1.55403  eV     1   --> A'             
     e( 17 - 17) =      2.55001  eV     1   --> A''            
     e( 18 - 18) =      2.56185  eV     1   --> A'             
     e( 19 - 19) =      3.13563  eV     1   --> A'             
     e( 20 - 20) =      3.31541  eV     1   --> A'             
     e( 21 - 21) =      3.32567  eV     1   --> A''            
     e( 22 - 22) =      3.85807  eV     1   --> A'             
     e( 23 - 23) =      4.53202  eV     1   --> A''            
     e( 24 - 24) =      4.58869  eV     1   --> A''            
     e( 25 - 25) =      4.59068  eV     1   --> A'             
     e( 26 - 26) =      5.07408  eV     1   -->   ?
     e( 27 - 27) =      5.07451  eV     1   -->   ?
     e( 28 - 28) =      5.27562  eV     1   --> A'             
     e( 29 - 29) =      5.76577  eV     1   --> A''            
     e( 30 - 30) =      5.77343  eV     1   --> A'             
     e( 31 - 31) =      5.91165  eV     1   --> A''            
     e( 32 - 32) =      6.13026  eV     1   -->   ?
     e( 33 - 33) =      6.13080  eV     1   -->   ?
     e( 34 - 34) =      6.67694  eV     1   --> A'             
     e( 35 - 35) =      6.67852  eV     1   --> A'             
     e( 36 - 36) =      6.69980  eV     1   --> A''            
     e( 37 - 37) =     10.64473  eV     1   --> A'             
     e( 38 - 38) =     12.22762  eV     1   --> A'             
     e( 39 - 39) =     12.23293  eV     1   --> A''            
     e( 40 - 40) =     12.40747  eV     1   --> A'             
     e( 41 - 41) =     12.46067  eV     1   --> A'             
     e( 42 - 42) =     12.47201  eV     1   --> A''            
     e( 43 - 43) =     12.68971  eV     1   --> A'             
     e( 44 - 44) =     13.78217  eV     1   --> A'             
     e( 45 - 45) =     14.76833  eV     1   --> A'             
     e( 46 - 46) =     14.77322  eV     1   --> A''            
     e( 47 - 47) =     15.08746  eV     1   --> A'             
     e( 48 - 48) =     16.51087  eV     1   --> A''            
     e( 49 - 49) =     16.52450  eV     1   --> A'             
     e( 50 - 50) =     16.87924  eV     1   --> A'             
     e( 51 - 51) =     17.07242  eV     1   --> A'             
     e( 52 - 52) =     17.28649  eV     1   --> A''            
     e( 53 - 53) =     17.49371  eV     1   --> A''            
     e( 54 - 54) =     17.50398  eV     1   --> A'             
     e( 55 - 55) =     18.00175  eV     1   --> A''            
     e( 56 - 56) =     18.00676  eV     1   --> A'             
     e( 57 - 57) =     18.57569  eV     1   --> A''            
     e( 58 - 58) =     18.59077  eV     1   --> A'             
     e( 59 - 59) =     18.69268  eV     1   --> A'             
     e( 60 - 60) =     19.10363  eV     1   --> A''            
     e( 61 - 61) =     19.10744  eV     1   --> A'             
     e( 62 - 62) =     19.43028  eV     1   --> A'             
     e( 63 - 63) =     20.07915  eV     1   --> A'             
     e( 64 - 64) =     20.08693  eV     1   --> A''            

 **************************************************************************

 **************************************************************************

                    xk=(   0.00000,   0.00000,   0.06273  )

     Band symmetry, C_s (m)     point group:

     e(  1 -  1) =    -65.63898  eV     1   --> A'             
     e(  2 -  2) =    -32.61106  eV     1   --> A'             
     e(  3 -  3) =    -32.60977  eV     1   --> A'             
     e(  4 -  4) =    -32.60836  eV     1   --> A''            
     e(  5 -  5) =     -8.27893  eV     1   --> A'             
     e(  6 -  6) =     -6.44234  eV     1   --> A'             
     e(  7 -  7) =     -6.43863  eV     1   --> A''            
     e(  8 -  8) =     -6.36334  eV     1   --> A'             
     e(  9 -  9) =     -6.19395  eV     1   --> A'             
     e( 10 - 10) =     -5.75742  eV     1   --> A'             
     e( 11 - 11) =     -5.66273  eV     1   --> A'             
     e( 12 - 12) =     -5.64751  eV     1   --> A''            
     e( 13 - 13) =      0.91386  eV     1   --> A'             
     e( 14 - 14) =      1.26841  eV     1   --> A'             
     e( 15 - 15) =      1.27041  eV     1   --> A''            
     e( 16 - 16) =      1.53919  eV     1   --> A'             
     e( 17 - 17) =      2.52169  eV     1   --> A''            
     e( 18 - 18) =      2.53340  eV     1   --> A'             
     e( 19 - 19) =      3.11639  eV     1   --> A'             
     e( 20 - 20) =      3.34474  eV     1   --> A'             
     e( 21 - 21) =      3.35508  eV     1   --> A''            
     e( 22 - 22) =      3.88013  eV     1   --> A'             
     e( 23 - 23) =      4.53724  eV     1   --> A''            
     e( 24 - 24) =      4.59911  eV     1   --> A''            
     e( 25 - 25) =      4.60122  eV     1   --> A'             
     e( 26 - 26) =      5.09419  eV     1   -->   ?
     e( 27 - 27) =      5.09463  eV     1   -->   ?
     e( 28 - 28) =      5.30068  eV     1   --> A'             
     e( 29 - 29) =      5.76481  eV     1   --> A''            
     e( 30 - 30) =      5.77250  eV     1   --> A'             
     e( 31 - 31) =      5.90363  eV     1   --> A''            
     e( 32 - 32) =      6.12613  eV     1   -->   ?
     e( 33 - 33) =      6.12676  eV     1   -->   ?
     e( 34 - 34) =      6.63439  eV     1   --> A'             
     e( 35 - 35) =      6.67491  eV     1   --> A'             
     e( 36 - 36) =      6.69742  eV     1   --> A''            
     e( 37 - 37) =     10.68173  eV     1   --> A'             
     e( 38 - 38) =     12.21729  eV     1   --> A'             
     e( 39 - 39) =     12.22366  eV     1   --> A''            
     e( 40 - 40) =     12.39112  eV     1   --> A'             
     e( 41 - 41) =     12.43406  eV     1   --> A'             
     e( 42 - 42) =     12.44389  eV     1   --> A''            
     e( 43 - 43) =     12.66358  eV     1   --> A'             
     e( 44 - 44) =     13.80542  eV     1   --> A'             
     e( 45 - 45) =     14.82553  eV     1   --> A'             
     e( 46 - 46) =     14.83087  eV     1   --> A''            
     e( 47 - 47) =     15.12963  eV     1   --> A'             
     e( 48 - 48) =     16.48239  eV     1   --> A''            
     e( 49 - 49) =     16.49596  eV     1   --> A'             
     e( 50 - 50) =     16.84592  eV     1   --> A'             
     e( 51 - 51) =     17.05993  eV     1   --> A'             
     e( 52 - 52) =     17.30749  eV     1   --> A''            
     e( 53 - 53) =     17.50479  eV     1   --> A''            
     e( 54 - 54) =     17.51501  eV     1   --> A'             
     e( 55 - 55) =     17.99911  eV     1   --> A''            
     e( 56 - 56) =     18.00393  eV     1   --> A'             
     e( 57 - 57) =     18.57161  eV     1   --> A''            
     e( 58 - 58) =     18.58707  eV     1   --> A'             
     e( 59 - 59) =     18.70284  eV     1   --> A'             
     e( 60 - 60) =     19.06834  eV     1   --> A''            
     e( 61 - 61) =     19.07159  eV     1   --> A'             
     e( 62 - 62) =     19.35357  eV     1   --> A'             
     e( 63 - 63) =     20.05332  eV     1   --> A'             
     e( 64 - 64) =     20.06062  eV     1   --> A''            

 **************************************************************************

 **************************************************************************

                    xk=(   0.00001,   0.00000,   0.09409  )

     Band symmetry, C_s (m)     point group:

     e(  1 -  1) =    -65.63898  eV     1   --> A'             
     e(  2 -  2) =    -32.61105  eV     1   --> A'             
     e(  3 -  3) =    -32.60974  eV     1   --> A'             
     e(  4 -  4) =    -32.60833  eV     1   --> A''            
     e(  5 -  5) =     -8.26738  eV     1   --> A'             
     e(  6 -  6) =     -6.43656  eV     1   --> A'             
     e(  7 -  7) =     -6.43302  eV     1   --> A''            
     e(  8 -  8) =     -6.36784  eV     1   --> A'             
     e(  9 -  9) =     -6.20855  eV     1   --> A'             
     e( 10 - 10) =     -5.75908  eV     1   --> A'             
     e( 11 - 11) =     -5.66733  eV     1   --> A'             
     e( 12 - 12) =     -5.65189  eV     1   --> A''            
     e( 13 - 13) =      0.95364  eV     1   --> A'             
     e( 14 - 14) =      1.24934  eV     1   --> A'             
     e( 15 - 15) =      1.25117  eV     1   --> A''            
     e( 16 - 16) =      1.51556  eV     1   --> A'             
     e( 17 - 17) =      2.47656  eV     1   --> A''            
     e( 18 - 18) =      2.48806  eV     1   --> A'             
     e( 19 - 19) =      3.08487  eV     1   --> A'             
     e( 20 - 20) =      3.39223  eV     1   --> A'             
     e( 21 - 21) =      3.40270  eV     1   --> A''            
     e( 22 - 22) =      3.91709  eV     1   --> A'             
     e( 23 - 23) =      4.54591  eV     1   --> A''            
     e( 24 - 24) =      4.61520  eV     1   --> A''            
     e( 25 - 25) =      4.61747  eV     1   --> A'             
     e( 26 - 26) =      5.12678  eV     1   -->   ?
     e( 27 - 27) =      5.12722  eV     1   -->   ?
     e( 28 - 28) =      5.34017  eV     1   --> A'             
     e( 29 - 29) =      5.76299  eV     1   --> A''            
     e( 30 - 30) =      5.77073  eV     1   --> A'             
     e( 31 - 31) =      5.89038  eV     1   --> A''            
     e( 32 - 32) =      6.11949  eV     1   -->   ?
     e( 33 - 33) =      6.12027  eV     1   -->   ?
     e( 34 - 34) =      6.56343  eV     1   --> A'             
     e( 35 - 35) =      6.67111  eV     1   --> A'             
     e( 36 - 36) =      6.69352  eV     1   --> A''            
     e( 37 - 37) =     10.74138  eV     1   --> A'             
     e( 38 - 38) =     12.19205  eV     1   --> A'             
     e( 39 - 39) =     12.20027  eV     1   --> A''            
     e( 40 - 40) =     12.35711  eV     1   --> A'             
     e( 41 - 41) =     12.40301  eV     1   --> A'             
     e( 42 - 42) =     12.41031  eV     1   --> A''            
     e( 43 - 43) =     12.63461  eV     1   --> A'             
     e( 44 - 44) =     13.83705  eV     1   --> A'             
     e( 45 - 45) =     14.91502  eV     1   --> A'             
     e( 46 - 46) =     14.92103  eV     1   --> A''            
     e( 47 - 47) =     15.19842  eV     1   --> A'             
     e( 48 - 48) =     16.43621  eV     1   --> A''            
     e( 49 - 49) =     16.44967  eV     1   --> A'             
     e( 50 - 50) =     16.79244  eV     1   --> A'             
     e( 51 - 51) =     17.04076  eV     1   --> A'             
     e( 52 - 52) =     17.34231  eV     1   --> A''            
     e( 53 - 53) =     17.52258  eV     1   --> A''            
     e( 54 - 54) =     17.53283  eV     1   --> A'             
     e( 55 - 55) =     17.99603  eV     1   --> A''            
     e( 56 - 56) =     18.00049  eV     1   --> A'             
     e( 57 - 57) =     18.56205  eV     1   --> A''            
     e( 58 - 58) =     18.57797  eV     1   --> A'             
     e( 59 - 59) =     18.71767  eV     1   --> A'             
     e( 60 - 60) =     19.01374  eV     1   --> A''            
     e( 61 - 61) =     19.01619  eV     1   --> A'             
     e( 62 - 62) =     19.23834  eV     1   --> A'             
     e( 63 - 63) =     20.01210  eV     1   --> A'             
     e( 64 - 64) =     20.01867  eV     1   --> A''            

 **************************************************************************

 **************************************************************************

                    xk=(   0.00001,   0.00000,   0.12546  )

     Band symmetry, C_s (m)     point group:

     e(  1 -  1) =    -65.63897  eV     1   --> A'             
     e(  2 -  2) =    -32.61105  eV     1   --> A'             
     e(  3 -  3) =    -32.60974  eV     1   --> A'             
     e(  4 -  4) =    -32.60833  eV     1   --> A''            
     e(  5 -  5) =     -8.25126  eV     1   --> A'             
     e(  6 -  6) =     -6.42855  eV     1   --> A'             
     e(  7 -  7) =     -6.42524  eV     1   --> A''            
     e(  8 -  8) =     -6.37752  eV     1   --> A'             
     e(  9 -  9) =     -6.22503  eV     1   --> A'             
     e( 10 - 10) =     -5.76148  eV     1   --> A'             
     e( 11 - 11) =     -5.67375  eV     1   --> A'             
     e( 12 - 12) =     -5.65799  eV     1   --> A''            
     e( 13 - 13) =      1.00856  eV     1   --> A'             
     e( 14 - 14) =      1.22485  eV     1   --> A'             
     e( 15 - 15) =      1.22642  eV     1   --> A''            
     e( 16 - 16) =      1.48467  eV     1   --> A'             
     e( 17 - 17) =      2.41718  eV     1   --> A''            
     e( 18 - 18) =      2.42840  eV     1   --> A'             
     e( 19 - 19) =      3.04226  eV     1   --> A'             
     e( 20 - 20) =      3.45612  eV     1   --> A'             
     e( 21 - 21) =      3.46672  eV     1   --> A''            
     e( 22 - 22) =      3.96862  eV     1   --> A'             
     e( 23 - 23) =      4.55799  eV     1   --> A''            
     e( 24 - 24) =      4.63557  eV     1   --> A''            
     e( 25 - 25) =      4.63802  eV     1   --> A'             
     e( 26 - 26) =      5.17033  eV     1   -->   ?
     e( 27 - 27) =      5.17077  eV     1   -->   ?
     e( 28 - 28) =      5.39108  eV     1   --> A'             
     e( 29 - 29) =      5.75996  eV     1   --> A''            
     e( 30 - 30) =      5.76776  eV     1   --> A'             
     e( 31 - 31) =      5.87205  eV     1   --> A''            
     e( 32 - 32) =      6.11070  eV     1   -->   ?
     e( 33 - 33) =      6.11167  eV     1   -->   ?
     e( 34 - 34) =      6.46819  eV     1   --> A'             
     e( 35 - 35) =      6.66596  eV     1   --> A'             
     e( 36 - 36) =      6.68822  eV     1   --> A''            
     e( 37 - 37) =     10.82098  eV     1   --> A'             
     e( 38 - 38) =     12.14381  eV     1   --> A'             
     e( 39 - 39) =     12.15386  eV     1   --> A''            
     e( 40 - 40) =     12.30116  eV     1   --> A'             
     e( 41 - 41) =     12.38153  eV     1   --> A'             
     e( 42 - 42) =     12.38619  eV     1   --> A''            
     e( 43 - 43) =     12.61494  eV     1   --> A'             
     e( 44 - 44) =     13.87033  eV     1   --> A'             
     e( 45 - 45) =     15.02977  eV     1   --> A'             
     e( 46 - 46) =     15.03664  eV     1   --> A''            
     e( 47 - 47) =     15.29135  eV     1   --> A'             
     e( 48 - 48) =     16.37441  eV     1   --> A''            
     e( 49 - 49) =     16.38773  eV     1   --> A'             
     e( 50 - 50) =     16.72220  eV     1   --> A'             
     e( 51 - 51) =     17.01647  eV     1   --> A'             
     e( 52 - 52) =     17.39071  eV     1   --> A''            
     e( 53 - 53) =     17.54581  eV     1   --> A''            
     e( 54 - 54) =     17.55627  eV     1   --> A'             
     e( 55 - 55) =     17.99419  eV     1   --> A''            
     e( 56 - 56) =     17.99806  eV     1   --> A'             
     e( 57 - 57) =     18.54261  eV     1   --> A''            
     e( 58 - 58) =     18.55876  eV     1   --> A'             
     e( 59 - 59) =     18.73418  eV     1   --> A'             
     e( 60 - 60) =     18.94668  eV     1   --> A''            
     e( 61 - 61) =     18.94842  eV     1   --> A'             
     e( 62 - 62) =     19.09660  eV     1   --> A'             
     e( 63 - 63) =     19.95806  eV     1   --> A'             
     e( 64 - 64) =     19.96370  eV     1   --> A''            

 **************************************************************************

 **************************************************************************

                    xk=(   0.00001,   0.00000,   0.15682  )

     Band symmetry, C_s (m)     point group:

     e(  1 -  1) =    -65.63898  eV     1   --> A'             
     e(  2 -  2) =    -32.61108  eV     1   --> A'             
     e(  3 -  3) =    -32.60974  eV     1   --> A'             
     e(  4 -  4) =    -32.60832  eV     1   --> A''            
     e(  5 -  5) =     -8.23060  eV     1   --> A'             
     e(  6 -  6) =     -6.41845  eV     1   --> A'             
     e(  7 -  7) =     -6.41536  eV     1   --> A''            
     e(  8 -  8) =     -6.39597  eV     1   --> A'             
     e(  9 -  9) =     -6.23924  eV     1   --> A'             
     e( 10 - 10) =     -5.76467  eV     1   --> A'             
     e( 11 - 11) =     -5.68196  eV     1   --> A'             
     e( 12 - 12) =     -5.66580  eV     1   --> A''            
     e( 13 - 13) =      1.07767  eV     1   --> A'             
     e( 14 - 14) =      1.19671  eV     1   -->   ?
     e( 15 - 15) =      1.19791  eV     1   -->   ?
     e( 16 - 16) =      1.44846  eV     1   --> A'             
     e( 17 - 17) =      2.34638  eV     1   --> A''            
     e( 18 - 18) =      2.35728  eV     1   --> A'             
     e( 19 - 19) =      2.99044  eV     1   --> A'             
     e( 20 - 20) =      3.53440  eV     1   --> A'             
     e( 21 - 21) =      3.54514  eV     1   --> A''            
     e( 22 - 22) =      4.03371  eV     1   --> A'             
     e( 23 - 23) =      4.57346  eV     1   --> A''            
     e( 24 - 24) =      4.65902  eV     1   --> A''            
     e( 25 - 25) =      4.66163  eV     1   --> A'             
     e( 26 - 26) =      5.22260  eV     1   -->   ?
     e( 27 - 27) =      5.22303  eV     1   -->   ?
     e( 28 - 28) =      5.44965  eV     1   --> A'             
     e( 29 - 29) =      5.75524  eV     1   --> A''            
     e( 30 - 30) =      5.76313  eV     1   --> A'             
     e( 31 - 31) =      5.84887  eV     1   --> A''            
     e( 32 - 32) =      6.10025  eV     1   -->   ?
     e( 33 - 33) =      6.10145  eV     1   -->   ?
     e( 34 - 34) =      6.35225  eV     1   --> A'             
     e( 35 - 35) =      6.65959  eV     1   --> A'             
     e( 36 - 36) =      6.68167  eV     1   --> A''            
     e( 37 - 37) =     10.91739  eV     1   --> A'             
     e( 38 - 38) =     12.07396  eV     1   --> A'             
     e( 39 - 39) =     12.08478  eV     1   --> A''            
     e( 40 - 40) =     12.22676  eV     1   --> A'             
     e( 41 - 41) =     12.37416  eV     1   --> A'             
     e( 42 - 42) =     12.37713  eV     1   --> A''            
     e( 43 - 43) =     12.60793  eV     1   --> A'             
     e( 44 - 44) =     13.90000  eV     1   --> A'             
     e( 45 - 45) =     15.16212  eV     1   --> A'             
     e( 46 - 46) =     15.17003  eV     1   --> A''            
     e( 47 - 47) =     15.40499  eV     1   --> A'             
     e( 48 - 48) =     16.30015  eV     1   --> A''            
     e( 49 - 49) =     16.31337  eV     1   --> A'             
     e( 50 - 50) =     16.63981  eV     1   --> A'             
     e( 51 - 51) =     16.98853  eV     1   --> A'             
     e( 52 - 52) =     17.45233  eV     1   --> A''            
     e( 53 - 53) =     17.57238  eV     1   --> A''            
     e( 54 - 54) =     17.58329  eV     1   --> A'             
     e( 55 - 55) =     17.99511  eV     1   --> A''            
     e( 56 - 56) =     17.99821  eV     1   --> A'             
     e( 57 - 57) =     18.50751  eV     1   --> A''            
     e( 58 - 58) =     18.52300  eV     1   --> A'             
     e( 59 - 59) =     18.74694  eV     1   --> A'             
     e( 60 - 60) =     18.87716  eV     1   --> A''            
     e( 61 - 61) =     18.87884  eV     1   --> A'             
     e( 62 - 62) =     18.94043  eV     1   --> A'             
     e( 63 - 63) =     19.89441  eV     1   --> A'             
     e( 64 - 64) =     19.89899  eV     1   --> A''            

 **************************************************************************

 **************************************************************************

                    xk=(   0.00001,   0.00001,   0.18819  )

     Band symmetry, C_s (m)     point group:

     e(  1 -  1) =    -65.63897  eV     1   --> A'             
     e(  2 -  2) =    -32.61108  eV     1   --> A'             
     e(  3 -  3) =    -32.60974  eV     1   --> A'             
     e(  4 -  4) =    -32.60832  eV     1   --> A''            
     e(  5 -  5) =     -8.20546  eV     1   --> A'             
     e(  6 -  6) =     -6.42671  eV     1   --> A'             
     e(  7 -  7) =     -6.40578  eV     1   --> A'             
     e(  8 -  8) =     -6.40347  eV     1   --> A''            
     e(  9 -  9) =     -6.24765  eV     1   --> A'             
     e( 10 - 10) =     -5.76868  eV     1   --> A'             
     e( 11 - 11) =     -5.69193  eV     1   --> A'             
     e( 12 - 12) =     -5.67527  eV     1   --> A''            
     e( 13 - 13) =      1.15691  eV     1   --> A'             
     e( 14 - 14) =      1.16743  eV     1   --> A''            
     e( 15 - 15) =      1.16905  eV     1   --> A'             
     e( 16 - 16) =      1.40966  eV     1   --> A'             
     e( 17 - 17) =      2.26694  eV     1   --> A''            
     e( 18 - 18) =      2.27748  eV     1   --> A'             
     e( 19 - 19) =      2.93175  eV     1   --> A'             
     e( 20 - 20) =      3.62501  eV     1   --> A'             
     e( 21 - 21) =      3.63588  eV     1   --> A''            
     e( 22 - 22) =      4.11081  eV     1   --> A'             
     e( 23 - 23) =      4.59225  eV     1   --> A''            
     e( 24 - 24) =      4.68473  eV     1   --> A''            
     e( 25 - 25) =      4.68749  eV     1   --> A'             
     e( 26 - 26) =      5.28084  eV     1   -->   ?
     e( 27 - 27) =      5.28121  eV     1   -->   ?
     e( 28 - 28) =      5.51136  eV     1   --> A'             
     e( 29 - 29) =      5.74822  eV     1   --> A''            
     e( 30 - 30) =      5.75624  eV     1   --> A'             
     e( 31 - 31) =      5.82112  eV     1   --> A''            
     e( 32 - 32) =      6.08874  eV     1   -->   ?
     e( 33 - 33) =      6.09021  eV     1   -->   ?
     e( 34 - 34) =      6.21994  eV     1   --> A'             
     e( 35 - 35) =      6.65219  eV     1   --> A'             
     e( 36 - 36) =      6.67406  eV     1   --> A''            
     e( 37 - 37) =     11.02731  eV     1   --> A'             
     e( 38 - 38) =     11.99191  eV     1   --> A'             
     e( 39 - 39) =     12.00262  eV     1   --> A''            
     e( 40 - 40) =     12.14234  eV     1   --> A'             
     e( 41 - 41) =     12.37646  eV     1   --> A'             
     e( 42 - 42) =     12.37857  eV     1   --> A''            
     e( 43 - 43) =     12.61042  eV     1   --> A'             
     e( 44 - 44) =     13.92248  eV     1   --> A'             
     e( 45 - 45) =     15.30393  eV     1   --> A'             
     e( 46 - 46) =     15.31310  eV     1   --> A''            
     e( 47 - 47) =     15.53506  eV     1   --> A'             
     e( 48 - 48) =     16.21808  eV     1   --> A''            
     e( 49 - 49) =     16.23132  eV     1   --> A'             
     e( 50 - 50) =     16.55046  eV     1   --> A'             
     e( 51 - 51) =     16.95855  eV     1   --> A'             
     e( 52 - 52) =     17.52667  eV     1   --> A''            
     e( 53 - 53) =     17.59936  eV     1   --> A''            
     e( 54 - 54) =     17.61088  eV     1   --> A'             
     e( 55 - 55) =     17.99878  eV     1   --> A''            
     e( 56 - 56) =     18.00122  eV     1   --> A'             
     e( 57 - 57) =     18.45328  eV     1   --> A''            
     e( 58 - 58) =     18.46644  eV     1   --> A'             
     e( 59 - 59) =     18.71876  eV     1   --> A'             
     e( 60 - 60) =     18.80865  eV     1   --> A'             
     e( 61 - 61) =     18.81565  eV     1   --> A''            
     e( 62 - 62) =     18.82122  eV     1   --> A'             
     e( 63 - 63) =     19.82464  eV     1   --> A'             
     e( 64 - 64) =     19.82807  eV     1   --> A''            

 **************************************************************************

 **************************************************************************

                    xk=(   0.00001,   0.00001,   0.21955  )

     Band symmetry, C_s (m)     point group:

     e(  1 -  1) =    -65.63898  eV     1   --> A'             
     e(  2 -  2) =    -32.61111  eV     1   --> A'             
     e(  3 -  3) =    -32.60974  eV     1   --> A'             
     e(  4 -  4) =    -32.60832  eV     1   --> A''            
     e(  5 -  5) =     -8.17591  eV     1   --> A'             
     e(  6 -  6) =     -6.46887  eV     1   --> A'             
     e(  7 -  7) =     -6.39164  eV     1   --> A'             
     e(  8 -  8) =     -6.38971  eV     1   --> A''            
     e(  9 -  9) =     -6.24951  eV     1   --> A'             
     e( 10 - 10) =     -5.77355  eV     1   --> A'             
     e( 11 - 11) =     -5.70359  eV     1   --> A'             
     e( 12 - 12) =     -5.68635  eV     1   --> A''            
     e( 13 - 13) =      1.13574  eV     1   -->   ?
     e( 14 - 14) =      1.13667  eV     1   -->   ?
     e( 15 - 15) =      1.24739  eV     1   --> A'             
     e( 16 - 16) =      1.37574  eV     1   --> A'             
     e( 17 - 17) =      2.18141  eV     1   --> A''            
     e( 18 - 18) =      2.19156  eV     1   --> A'             
     e( 19 - 19) =      2.86863  eV     1   --> A'             
     e( 20 - 20) =      3.72595  eV     1   --> A'             
     e( 21 - 21) =      3.73693  eV     1   --> A''            
     e( 22 - 22) =      4.19803  eV     1   --> A'             
     e( 23 - 23) =      4.61430  eV     1   --> A''            
     e( 24 - 24) =      4.71226  eV     1   --> A''            
     e( 25 - 25) =      4.71515  eV     1   --> A'             
     e( 26 - 26) =      5.34194  eV     1   -->   ?
     e( 27 - 27) =      5.34220  eV     1   -->   ?
     e( 28 - 28) =      5.56971  eV     1   --> A'             
     e( 29 - 29) =      5.73817  eV     1   --> A''            
     e( 30 - 30) =      5.74642  eV     1   --> A'             
     e( 31 - 31) =      5.78919  eV     1   --> A''            
     e( 32 - 32) =      6.07400  eV     1   --> A'             
     e( 33 - 33) =      6.07858  eV     1   -->   ?
     e( 34 - 34) =      6.08038  eV     1   -->   ?
     e( 35 - 35) =      6.64395  eV     1   --> A'             
     e( 36 - 36) =      6.66559  eV     1   --> A''            
     e( 37 - 37) =     11.14747  eV     1   --> A'             
     e( 38 - 38) =     11.90663  eV     1   --> A'             
     e( 39 - 39) =     11.91679  eV     1   --> A''            
     e( 40 - 40) =     12.05573  eV     1   --> A'             
     e( 41 - 41) =     12.38335  eV     1   --> A'             
     e( 42 - 42) =     12.38496  eV     1   --> A''            
     e( 43 - 43) =     12.61842  eV     1   --> A'             
     e( 44 - 44) =     13.93550  eV     1   --> A'             
     e( 45 - 45) =     15.44531  eV     1   --> A'             
     e( 46 - 46) =     15.45601  eV     1   --> A''            
     e( 47 - 47) =     15.67665  eV     1   --> A'             
     e( 48 - 48) =     16.13559  eV     1   --> A''            
     e( 49 - 49) =     16.14906  eV     1   --> A'             
     e( 50 - 50) =     16.45955  eV     1   --> A'             
     e( 51 - 51) =     16.92848  eV     1   --> A'             
     e( 52 - 52) =     17.61146  eV     1   --> A''            
     e( 53 - 53) =     17.62497  eV     1   --> A''            
     e( 54 - 54) =     17.63538  eV     1   --> A'             
     e( 55 - 55) =     18.00032  eV     1   --> A''            
     e( 56 - 56) =     18.00296  eV     1   --> A'             
     e( 57 - 57) =     18.38776  eV     1   --> A''            
     e( 58 - 58) =     18.39661  eV     1   --> A'             
     e( 59 - 59) =     18.56707  eV     1   --> A'             
     e( 60 - 60) =     18.76703  eV     1   --> A''            
     e( 61 - 61) =     18.77000  eV     1   --> A'             
     e( 62 - 62) =     18.79681  eV     1   --> A'             
     e( 63 - 63) =     19.75214  eV     1   -->   ?
     e( 64 - 64) =     19.75436  eV     1   -->   ?

 **************************************************************************

 **************************************************************************

                    xk=(   0.00001,   0.00001,   0.25092  )

     Band symmetry, C_s (m)     point group:

     e(  1 -  1) =    -65.63898  eV     1   --> A'             
     e(  2 -  2) =    -32.61112  eV     1   --> A'             
     e(  3 -  3) =    -32.60974  eV     1   --> A'             
     e(  4 -  4) =    -32.60832  eV     1   --> A''            
     e(  5 -  5) =     -8.14202  eV     1   --> A'             
     e(  6 -  6) =     -6.52109  eV     1   --> A'             
     e(  7 -  7) =     -6.37553  eV     1   --> A'             
     e(  8 -  8) =     -6.37419  eV     1   --> A''            
     e(  9 -  9) =     -6.24618  eV     1   --> A'             
     e( 10 - 10) =     -5.77928  eV     1   --> A'             
     e( 11 - 11) =     -5.71687  eV     1   --> A'             
     e( 12 - 12) =     -5.69896  eV     1   --> A''            
     e( 13 - 13) =      1.10674  eV     1   -->   ?
     e( 14 - 14) =      1.10714  eV     1   -->   ?
     e( 15 - 15) =      1.28789  eV     1   --> A'             
     e( 16 - 16) =      1.40000  eV     1   --> A'             
     e( 17 - 17) =      2.09201  eV     1   --> A''            
     e( 18 - 18) =      2.10175  eV     1   --> A'             
     e( 19 - 19) =      2.80344  eV     1   --> A'             
     e( 20 - 20) =      3.83536  eV     1   --> A'             
     e( 21 - 21) =      3.84644  eV     1   --> A''            
     e( 22 - 22) =      4.29339  eV     1   --> A'             
     e( 23 - 23) =      4.63954  eV     1   --> A''            
     e( 24 - 24) =      4.74143  eV     1   --> A''            
     e( 25 - 25) =      4.74445  eV     1   --> A'             
     e( 26 - 27) =      5.40279  eV     2   --> A'             
     e( 26 - 27) =      5.40279  eV     2   --> A''            
     e( 28 - 28) =      5.60992  eV     1   --> A'             
     e( 29 - 29) =      5.72416  eV     1   --> A''            
     e( 30 - 30) =      5.73305  eV     1   --> A'             
     e( 31 - 31) =      5.75373  eV     1   --> A''            
     e( 32 - 32) =      5.93926  eV     1   --> A'             
     e( 33 - 33) =      6.06542  eV     1   -->   ?
     e( 34 - 34) =      6.06714  eV     1   -->   ?
     e( 35 - 35) =      6.63511  eV     1   --> A'             
     e( 36 - 36) =      6.65650  eV     1   --> A''            
     e( 37 - 37) =     11.27476  eV     1   --> A'             
     e( 38 - 38) =     11.82452  eV     1   --> A'             
     e( 39 - 39) =     11.83394  eV     1   --> A''            
     e( 40 - 40) =     11.97283  eV     1   --> A'             
     e( 41 - 41) =     12.39117  eV     1   --> A'             
     e( 42 - 42) =     12.39243  eV     1   --> A''            
     e( 43 - 43) =     12.62877  eV     1   --> A'             
     e( 44 - 44) =     13.93752  eV     1   --> A'             
     e( 45 - 45) =     15.57033  eV     1   --> A'             
     e( 46 - 46) =     15.58253  eV     1   --> A''            
     e( 47 - 47) =     15.82402  eV     1   --> A'             
     e( 48 - 48) =     16.06697  eV     1   --> A''            
     e( 49 - 49) =     16.08068  eV     1   --> A'             
     e( 50 - 50) =     16.37275  eV     1   --> A'             
     e( 51 - 51) =     16.90068  eV     1   --> A'             
     e( 52 - 52) =     17.63904  eV     1   --> A''            
     e( 53 - 53) =     17.65292  eV     1   --> A'             
     e( 54 - 54) =     17.71263  eV     1   --> A''            
     e( 55 - 55) =     17.98541  eV     1   --> A''            
     e( 56 - 56) =     17.99007  eV     1   --> A'             
     e( 57 - 57) =     18.33594  eV     1   --> A''            
     e( 58 - 58) =     18.33841  eV     1   --> A'             
     e( 59 - 59) =     18.38967  eV     1   --> A'             
     e( 60 - 60) =     18.72899  eV     1   --> A''            
     e( 61 - 61) =     18.73532  eV     1   --> A'             
     e( 62 - 62) =     18.79596  eV     1   --> A'             
     e( 63 - 63) =     19.68003  eV     1   -->   ?
     e( 64 - 64) =     19.68101  eV     1   -->   ?

 **************************************************************************

 **************************************************************************

                    xk=(   0.00002,   0.00001,   0.28228  )

     Band symmetry, C_s (m)     point group:

     e(  1 -  1) =    -65.63898  eV     1   --> A'             
     e(  2 -  2) =    -32.61111  eV     1   --> A'             
     e(  3 -  3) =    -32.60974  eV     1   --> A'             
     e(  4 -  4) =    -32.60832  eV     1   --> A''            
     e(  5 -  5) =     -8.10389  eV     1   --> A'             
     e(  6 -  6) =     -6.58105  eV     1   --> A'             
     e(  7 -  7) =     -6.35772  eV     1   --> A'             
     e(  8 -  8) =     -6.35712  eV     1   --> A''            
     e(  9 -  9) =     -6.23925  eV     1   --> A'             
     e( 10 - 10) =     -5.78583  eV     1   --> A'             
     e( 11 - 11) =     -5.73168  eV     1   --> A'             
     e( 12 - 12) =     -5.71300  eV     1   --> A''            
     e( 13 - 13) =      1.08014  eV     1   -->   ?
     e( 14 - 14) =      1.08024  eV     1   -->   ?
     e( 15 - 15) =      1.25747  eV     1   --> A'             
     e( 16 - 16) =      1.50668  eV     1   --> A'             
     e( 17 - 17) =      2.00065  eV     1   --> A''            
     e( 18 - 18) =      2.00996  eV     1   --> A'             
     e( 19 - 19) =      2.73842  eV     1   --> A'             
     e( 20 - 20) =      3.95148  eV     1   --> A'             
     e( 21 - 21) =      3.96264  eV     1   --> A''            
     e( 22 - 22) =      4.39494  eV     1   --> A'             
     e( 23 - 23) =      4.66789  eV     1   --> A''            
     e( 24 - 24) =      4.77219  eV     1   --> A''            
     e( 25 - 25) =      4.77533  eV     1   --> A'             
     e( 26 - 26) =      5.45978  eV     1   -->   ?
     e( 27 - 27) =      5.46044  eV     1   -->   ?
     e( 28 - 28) =      5.58552  eV     1   --> A'             
     e( 29 - 29) =      5.70339  eV     1   --> A''            
     e( 30 - 30) =      5.71568  eV     1   --> A'             
     e( 31 - 31) =      5.71743  eV     1   --> A''            
     e( 32 - 32) =      5.85201  eV     1   --> A'             
     e( 33 - 33) =      6.05443  eV     1   -->   ?
     e( 34 - 34) =      6.05632  eV     1   -->   ?
     e( 35 - 35) =      6.62588  eV     1   --> A'             
     e( 36 - 36) =      6.64703  eV     1   --> A''            
     e( 37 - 37) =     11.40607  eV     1   --> A'             
     e( 38 - 38) =     11.75019  eV     1   --> A'             
     e( 39 - 39) =     11.75875  eV     1   --> A''            
     e( 40 - 40) =     11.89810  eV     1   --> A'             
     e( 41 - 41) =     12.39710  eV     1   --> A'             
     e( 42 - 42) =     12.39805  eV     1   --> A''            
     e( 43 - 43) =     12.63904  eV     1   --> A'             
     e( 44 - 44) =     13.92756  eV     1   --> A'             
     e( 45 - 45) =     15.64859  eV     1   --> A'             
     e( 46 - 46) =     15.66017  eV     1   --> A''            
     e( 47 - 47) =     15.96840  eV     1   --> A'             
     e( 48 - 48) =     16.04267  eV     1   --> A''            
     e( 49 - 49) =     16.05493  eV     1   --> A'             
     e( 50 - 50) =     16.29755  eV     1   --> A'             
     e( 51 - 51) =     16.87803  eV     1   --> A'             
     e( 52 - 52) =     17.64467  eV     1   --> A''            
     e( 53 - 53) =     17.65884  eV     1   --> A'             
     e( 54 - 54) =     17.82189  eV     1   --> A''            
     e( 55 - 55) =     17.94050  eV     1   --> A''            
     e( 56 - 56) =     17.94794  eV     1   --> A'             
     e( 57 - 57) =     18.21026  eV     1   --> A'             
     e( 58 - 58) =     18.32100  eV     1   --> A'             
     e( 59 - 59) =     18.32494  eV     1   --> A''            
     e( 60 - 60) =     18.69781  eV     1   --> A''            
     e( 61 - 61) =     18.70670  eV     1   --> A'             
     e( 62 - 62) =     18.78982  eV     1   --> A'             
     e( 63 - 63) =     19.61073  eV     1   -->   ?
     e( 64 - 64) =     19.61096  eV     1   -->   ?

 **************************************************************************

 **************************************************************************

                    xk=(   0.00002,   0.00001,   0.31365  )

     Band symmetry, C_s (m)     point group:

     e(  1 -  1) =    -65.63898  eV     1   --> A'             
     e(  2 -  2) =    -32.61113  eV     1   --> A'             
     e(  3 -  3) =    -32.60974  eV     1   --> A'             
     e(  4 -  4) =    -32.60833  eV     1   --> A''            
     e(  5 -  5) =     -8.06164  eV     1   --> A'             
     e(  6 -  6) =     -6.64693  eV     1   --> A'             
     e(  7 -  7) =     -6.33869  eV     1   --> A''            
     e(  8 -  8) =     -6.33841  eV     1   --> A'             
     e(  9 -  9) =     -6.22991  eV     1   --> A'             
     e( 10 - 10) =     -5.79318  eV     1   --> A'             
     e( 11 - 11) =     -5.74785  eV     1   --> A'             
     e( 12 - 12) =     -5.72835  eV     1   --> A''            
     e( 13 - 13) =      1.05675  eV     1   -->   ?
     e( 14 - 14) =      1.05737  eV     1   -->   ?
     e( 15 - 15) =      1.21712  eV     1   --> A'             
     e( 16 - 16) =      1.63450  eV     1   --> A'             
     e( 17 - 17) =      1.90895  eV     1   --> A''            
     e( 18 - 18) =      1.91782  eV     1   --> A'             
     e( 19 - 19) =      2.67567  eV     1   --> A'             
     e( 20 - 20) =      4.07271  eV     1   --> A'             
     e( 21 - 21) =      4.08392  eV     1   --> A''            
     e( 22 - 22) =      4.50076  eV     1   --> A'             
     e( 23 - 23) =      4.69924  eV     1   --> A''            
     e( 24 - 24) =      4.80451  eV     1   --> A''            
     e( 25 - 25) =      4.80777  eV     1   --> A'             
     e( 26 - 26) =      5.45717  eV     1   --> A'             
     e( 27 - 27) =      5.51203  eV     1   -->   ?
     e( 28 - 28) =      5.51353  eV     1   -->   ?
     e( 29 - 29) =      5.66706  eV     1   --> A''            
     e( 30 - 30) =      5.68938  eV     1   --> A''            
     e( 31 - 31) =      5.69429  eV     1   --> A'             
     e( 32 - 32) =      5.85114  eV     1   --> A'             
     e( 33 - 33) =      6.04433  eV     1   -->   ?
     e( 34 - 34) =      6.04632  eV     1   -->   ?
     e( 35 - 35) =      6.61649  eV     1   --> A'             
     e( 36 - 36) =      6.63739  eV     1   --> A''            
     e( 37 - 37) =     11.53753  eV     1   --> A'             
     e( 38 - 38) =     11.68712  eV     1   --> A'             
     e( 39 - 39) =     11.69471  eV     1   --> A''            
     e( 40 - 40) =     11.83577  eV     1   --> A'             
     e( 41 - 41) =     12.39865  eV     1   --> A'             
     e( 42 - 42) =     12.39927  eV     1   --> A''            
     e( 43 - 43) =     12.64717  eV     1   --> A'             
     e( 44 - 44) =     13.90524  eV     1   --> A'             
     e( 45 - 45) =     15.65285  eV     1   --> A'             
     e( 46 - 46) =     15.66020  eV     1   --> A''            
     e( 47 - 47) =     16.08177  eV     1   --> A'             
     e( 48 - 48) =     16.08841  eV     1   --> A''            
     e( 49 - 49) =     16.09917  eV     1   --> A'             
     e( 50 - 50) =     16.25664  eV     1   --> A'             
     e( 51 - 51) =     16.86387  eV     1   --> A'             
     e( 52 - 52) =     17.63106  eV     1   --> A''            
     e( 53 - 53) =     17.64532  eV     1   --> A'             
     e( 54 - 54) =     17.88248  eV     1   --> A''            
     e( 55 - 55) =     17.89162  eV     1   --> A'             
     e( 56 - 56) =     17.94167  eV     1   --> A''            
     e( 57 - 57) =     18.03476  eV     1   --> A'             
     e( 58 - 58) =     18.34261  eV     1   --> A'             
     e( 59 - 59) =     18.35152  eV     1   --> A''            
     e( 60 - 60) =     18.67384  eV     1   --> A''            
     e( 61 - 61) =     18.68508  eV     1   --> A'             
     e( 62 - 62) =     18.77394  eV     1   --> A'             
     e( 63 - 63) =     19.54585  eV     1   -->   ?
     e( 64 - 64) =     19.54712  eV     1   -->   ?

 **************************************************************************

 **************************************************************************

                    xk=(   0.00002,   0.00001,   0.34501  )

     Band symmetry, C_s (m)     point group:

     e(  1 -  1) =    -65.63898  eV     1   --> A'             
     e(  2 -  2) =    -32.61112  eV     1   --> A'             
     e(  3 -  3) =    -32.60975  eV     1   --> A'             
     e(  4 -  4) =    -32.60833  eV     1   --> A''            
     e(  5 -  5) =     -8.01540  eV     1   --> A'             
     e(  6 -  6) =     -6.71735  eV     1   --> A'             
     e(  7 -  7) =     -6.31917  eV     1   --> A''            
     e(  8 -  8) =     -6.31783  eV     1   --> A'             
     e(  9 -  9) =     -6.21899  eV     1   --> A'             
     e( 10 - 10) =     -5.80129  eV     1   --> A'             
     e( 11 - 11) =     -5.76517  eV     1   --> A'             
     e( 12 - 12) =     -5.74482  eV     1   --> A''            
     e( 13 - 13) =      1.03786  eV     1   --> A''            
     e( 14 - 14) =      1.03901  eV     1   --> A'             
     e( 15 - 15) =      1.17687  eV     1   --> A'             
     e( 16 - 16) =      1.77256  eV     1   --> A'             
     e( 17 - 17) =      1.81829  eV     1   --> A''            
     e( 18 - 18) =      1.82671  eV     1   --> A'             
     e( 19 - 19) =      2.61755  eV     1   --> A'             
     e( 20 - 20) =      4.19749  eV     1   --> A'             
     e( 21 - 21) =      4.20872  eV     1   --> A''            
     e( 22 - 22) =      4.60882  eV     1   --> A'             
     e( 23 - 23) =      4.73348  eV     1   --> A''            
     e( 24 - 24) =      4.83836  eV     1   --> A''            
     e( 25 - 25) =      4.84175  eV     1   --> A'             
     e( 26 - 26) =      5.28636  eV     1   --> A'             
     e( 27 - 27) =      5.55390  eV     1   -->   ?
     e( 28 - 28) =      5.55468  eV     1   -->   ?
     e( 29 - 29) =      5.62267  eV     1   --> A''            
     e( 30 - 30) =      5.66313  eV     1   --> A''            
     e( 31 - 31) =      5.66962  eV     1   --> A'             
     e( 32 - 32) =      5.88231  eV     1   --> A'             
     e( 33 - 33) =      6.03509  eV     1   -->   ?
     e( 34 - 34) =      6.03709  eV     1   -->   ?
     e( 35 - 35) =      6.60713  eV     1   --> A'             
     e( 36 - 36) =      6.62778  eV     1   --> A''            
     e( 37 - 37) =     11.63639  eV     1   --> A'             
     e( 38 - 38) =     11.64442  eV     1   --> A''            
     e( 39 - 39) =     11.66101  eV     1   --> A'             
     e( 40 - 40) =     11.79511  eV     1   --> A'             
     e( 41 - 41) =     12.39346  eV     1   --> A'             
     e( 42 - 42) =     12.39374  eV     1   --> A''            
     e( 43 - 43) =     12.65141  eV     1   --> A'             
     e( 44 - 44) =     13.87099  eV     1   --> A'             
     e( 45 - 45) =     15.60880  eV     1   --> A'             
     e( 46 - 46) =     15.61285  eV     1   --> A''            
     e( 47 - 47) =     16.10698  eV     1   --> A'             
     e( 48 - 48) =     16.16906  eV     1   -->   ?
     e( 49 - 49) =     16.16916  eV     1   -->   ?
     e( 50 - 50) =     16.31675  eV     1   --> A'             
     e( 51 - 51) =     16.86175  eV     1   --> A'             
     e( 52 - 52) =     17.59188  eV     1   --> A''            
     e( 53 - 53) =     17.60590  eV     1   --> A'             
     e( 54 - 54) =     17.84475  eV     1   --> A''            
     e( 55 - 55) =     17.85454  eV     1   --> A'             
     e( 56 - 56) =     17.86716  eV     1   --> A'             
     e( 57 - 57) =     18.07077  eV     1   --> A''            
     e( 58 - 58) =     18.37696  eV     1   --> A'             
     e( 59 - 59) =     18.38883  eV     1   --> A''            
     e( 60 - 60) =     18.66523  eV     1   --> A''            
     e( 61 - 61) =     18.67804  eV     1   --> A'             
     e( 62 - 62) =     18.74600  eV     1   --> A'             
     e( 63 - 63) =     19.48803  eV     1   -->   ?
     e( 64 - 64) =     19.48852  eV     1   -->   ?

 **************************************************************************

 **************************************************************************

                    xk=(   0.00002,   0.00001,   0.37638  )

     Band symmetry, C_s (m)     point group:

     e(  1 -  1) =    -65.63897  eV     1   --> A'             
     e(  2 -  2) =    -32.61109  eV     1   --> A'             
     e(  3 -  3) =    -32.60973  eV     1   --> A'             
     e(  4 -  4) =    -32.60832  eV     1   --> A''            
     e(  5 -  5) =     -7.96535  eV     1   --> A'             
     e(  6 -  6) =     -6.79116  eV     1   --> A'             
     e(  7 -  7) =     -6.29885  eV     1   --> A''            
     e(  8 -  8) =     -6.29626  eV     1   --> A'             
     e(  9 -  9) =     -6.20711  eV     1   --> A'             
     e( 10 - 10) =     -5.81019  eV     1   --> A'             
     e( 11 - 11) =     -5.78326  eV     1   --> A'             
     e( 12 - 12) =     -5.76218  eV     1   --> A''            
     e( 13 - 13) =      1.02415  eV     1   --> A''            
     e( 14 - 14) =      1.02586  eV     1   --> A'             
     e( 15 - 15) =      1.13883  eV     1   --> A'             
     e( 16 - 16) =      1.72985  eV     1   --> A''            
     e( 17 - 17) =      1.73777  eV     1   --> A'             
     e( 18 - 18) =      1.91664  eV     1   --> A'             
     e( 19 - 19) =      2.56724  eV     1   --> A'             
     e( 20 - 20) =      4.32433  eV     1   --> A'             
     e( 21 - 21) =      4.33554  eV     1   --> A''            
     e( 22 - 22) =      4.71630  eV     1   --> A'             
     e( 23 - 23) =      4.77047  eV     1   --> A''            
     e( 24 - 24) =      4.87365  eV     1   --> A''            
     e( 25 - 25) =      4.87716  eV     1   --> A'             
     e( 26 - 26) =      5.09920  eV     1   --> A'             
     e( 27 - 27) =      5.57112  eV     1   --> A''            
     e( 28 - 28) =      5.58127  eV     1   --> A'             
     e( 29 - 29) =      5.58848  eV     1   --> A''            
     e( 30 - 30) =      5.63637  eV     1   --> A''            
     e( 31 - 31) =      5.64502  eV     1   --> A'             
     e( 32 - 32) =      5.91487  eV     1   --> A'             
     e( 33 - 33) =      6.02662  eV     1   -->   ?
     e( 34 - 34) =      6.02852  eV     1   -->   ?
     e( 35 - 35) =      6.59797  eV     1   --> A'             
     e( 36 - 36) =      6.61838  eV     1   --> A''            
     e( 37 - 37) =     11.60359  eV     1   --> A'             
     e( 38 - 38) =     11.60977  eV     1   --> A''            
     e( 39 - 39) =     11.71326  eV     1   --> A'             
     e( 40 - 40) =     11.83432  eV     1   --> A'             
     e( 41 - 42) =     12.37931  eV     2   --> A'             
     e( 41 - 42) =     12.37931  eV     2   --> A''            
     e( 43 - 43) =     12.65054  eV     1   --> A'             
     e( 44 - 44) =     13.82618  eV     1   --> A'             
     e( 45 - 45) =     15.55337  eV     1   --> A'             
     e( 46 - 46) =     15.55606  eV     1   --> A''            
     e( 47 - 47) =     16.07598  eV     1   --> A'             
     e( 48 - 48) =     16.23646  eV     1   --> A'             
     e( 49 - 49) =     16.23957  eV     1   --> A''            
     e( 50 - 50) =     16.42459  eV     1   --> A'             
     e( 51 - 51) =     16.87404  eV     1   --> A'             
     e( 52 - 52) =     17.54107  eV     1   --> A''            
     e( 53 - 53) =     17.55479  eV     1   --> A'             
     e( 54 - 54) =     17.71248  eV     1   --> A'             
     e( 55 - 55) =     17.83607  eV     1   --> A''            
     e( 56 - 56) =     17.84641  eV     1   --> A'             
     e( 57 - 57) =     18.20839  eV     1   --> A''            
     e( 58 - 58) =     18.39608  eV     1   --> A'             
     e( 59 - 59) =     18.40775  eV     1   --> A''            
     e( 60 - 60) =     18.68732  eV     1   --> A''            
     e( 61 - 61) =     18.69850  eV     1   --> A'             
     e( 62 - 62) =     18.70487  eV     1   --> A'             
     e( 63 - 63) =     19.37945  eV     1   --> A'             
     e( 64 - 64) =     19.44132  eV     1   --> A''            

 **************************************************************************

 **************************************************************************

                    xk=(   0.00002,   0.00001,   0.40774  )

     Band symmetry, C_s (m)     point group:

     e(  1 -  1) =    -65.63897  eV     1   --> A'             
     e(  2 -  2) =    -32.61110  eV     1   --> A'             
     e(  3 -  3) =    -32.60973  eV     1   --> A'             
     e(  4 -  4) =    -32.60832  eV     1   --> A''            
     e(  5 -  5) =     -7.91170  eV     1   --> A'             
     e(  6 -  6) =     -6.86740  eV     1   --> A'             
     e(  7 -  7) =     -6.27813  eV     1   --> A''            
     e(  8 -  8) =     -6.27404  eV     1   --> A'             
     e(  9 -  9) =     -6.19479  eV     1   --> A'             
     e( 10 - 10) =     -5.82022  eV     1   --> A'             
     e( 11 - 11) =     -5.80132  eV     1   --> A'             
     e( 12 - 12) =     -5.78012  eV     1   --> A''            
     e( 13 - 13) =      1.01614  eV     1   --> A''            
     e( 14 - 14) =      1.01844  eV     1   --> A'             
     e( 15 - 15) =      1.10399  eV     1   --> A'             
     e( 16 - 16) =      1.64465  eV     1   --> A''            
     e( 17 - 17) =      1.65207  eV     1   --> A'             
     e( 18 - 18) =      2.06019  eV     1   --> A'             
     e( 19 - 19) =      2.53104  eV     1   --> A'             
     e( 20 - 20) =      4.45172  eV     1   --> A'             
     e( 21 - 21) =      4.46285  eV     1   --> A''            
     e( 22 - 22) =      4.80715  eV     1   --> A'             
     e( 23 - 23) =      4.81008  eV     1   --> A''            
     e( 24 - 24) =      4.91022  eV     1   --> A''            
     e( 25 - 25) =      4.91354  eV     1   --> A'             
     e( 26 - 26) =      4.92002  eV     1   --> A'             
     e( 27 - 27) =      5.52344  eV     1   --> A''            
     e( 28 - 28) =      5.58067  eV     1   --> A'             
     e( 29 - 29) =      5.58594  eV     1   --> A''            
     e( 30 - 30) =      5.62471  eV     1   --> A''            
     e( 31 - 31) =      5.63297  eV     1   --> A'             
     e( 32 - 32) =      5.94043  eV     1   --> A'             
     e( 33 - 33) =      6.01897  eV     1   -->   ?
     e( 34 - 34) =      6.02067  eV     1   -->   ?
     e( 35 - 35) =      6.58913  eV     1   --> A'             
     e( 36 - 36) =      6.60933  eV     1   --> A''            
     e( 37 - 37) =     11.58669  eV     1   --> A'             
     e( 38 - 38) =     11.59194  eV     1   --> A''            
     e( 39 - 39) =     11.70378  eV     1   --> A'             
     e( 40 - 40) =     11.94445  eV     1   --> A'             
     e( 41 - 41) =     12.35424  eV     1   --> A''            
     e( 42 - 42) =     12.35472  eV     1   --> A'             
     e( 43 - 43) =     12.64434  eV     1   --> A'             
     e( 44 - 44) =     13.77306  eV     1   --> A'             
     e( 45 - 45) =     15.50449  eV     1   --> A'             
     e( 46 - 46) =     15.50689  eV     1   --> A''            
     e( 47 - 47) =     16.04705  eV     1   --> A'             
     e( 48 - 48) =     16.27085  eV     1   --> A'             
     e( 49 - 49) =     16.27547  eV     1   --> A''            
     e( 50 - 50) =     16.52146  eV     1   --> A'             
     e( 51 - 51) =     16.89783  eV     1   --> A'             
     e( 52 - 52) =     17.50523  eV     1   --> A''            
     e( 53 - 53) =     17.51844  eV     1   --> A'             
     e( 54 - 54) =     17.57936  eV     1   --> A'             
     e( 55 - 55) =     17.84605  eV     1   --> A''            
     e( 56 - 56) =     17.85663  eV     1   --> A'             
     e( 57 - 57) =     18.35244  eV     1   --> A''            
     e( 58 - 58) =     18.38802  eV     1   --> A'             
     e( 59 - 59) =     18.39820  eV     1   --> A''            
     e( 60 - 60) =     18.64960  eV     1   --> A'             
     e( 61 - 61) =     18.74198  eV     1   --> A''            
     e( 62 - 62) =     18.74991  eV     1   --> A'             
     e( 63 - 63) =     19.27092  eV     1   --> A'             
     e( 64 - 64) =     19.40835  eV     1   --> A''            

 **************************************************************************

 **************************************************************************

                    xk=(   0.00002,   0.00001,   0.43911  )

     Band symmetry, C_s (m)     point group:

     e(  1 -  1) =    -65.63897  eV     1   --> A'             
     e(  2 -  2) =    -32.61111  eV     1   --> A'             
     e(  3 -  3) =    -32.60974  eV     1   --> A'             
     e(  4 -  4) =    -32.60833  eV     1   --> A''            
     e(  5 -  5) =     -7.85469  eV     1   --> A'             
     e(  6 -  6) =     -6.94515  eV     1   --> A'             
     e(  7 -  7) =     -6.25746  eV     1   --> A''            
     e(  8 -  8) =     -6.25161  eV     1   --> A'             
     e(  9 -  9) =     -6.18252  eV     1   --> A'             
     e( 10 - 10) =     -5.83269  eV     1   --> A'             
     e( 11 - 11) =     -5.81742  eV     1   --> A'             
     e( 12 - 12) =     -5.79824  eV     1   --> A''            
     e( 13 - 13) =      1.01416  eV     1   --> A''            
     e( 14 - 14) =      1.01706  eV     1   --> A'             
     e( 15 - 15) =      1.07295  eV     1   --> A'             
     e( 16 - 16) =      1.56361  eV     1   --> A''            
     e( 17 - 17) =      1.57049  eV     1   --> A'             
     e( 18 - 18) =      2.18636  eV     1   --> A'             
     e( 19 - 19) =      2.52569  eV     1   --> A'             
     e( 20 - 20) =      4.57801  eV     1   --> A'             
     e( 21 - 21) =      4.58901  eV     1   --> A''            
     e( 22 - 22) =      4.68505  eV     1   --> A'             
     e( 23 - 23) =      4.85214  eV     1   --> A''            
     e( 24 - 24) =      4.94509  eV     1   --> A'             
     e( 25 - 25) =      4.94786  eV     1   --> A''            
     e( 26 - 26) =      4.95224  eV     1   --> A'             
     e( 27 - 27) =      5.47194  eV     1   --> A''            
     e( 28 - 28) =      5.55257  eV     1   --> A'             
     e( 29 - 29) =      5.55506  eV     1   --> A''            
     e( 30 - 30) =      5.62745  eV     1   --> A''            
     e( 31 - 31) =      5.63209  eV     1   --> A'             
     e( 32 - 32) =      5.95623  eV     1   --> A'             
     e( 33 - 33) =      6.01248  eV     1   -->   ?
     e( 34 - 34) =      6.01385  eV     1   -->   ?
     e( 35 - 35) =      6.58075  eV     1   --> A'             
     e( 36 - 36) =      6.60076  eV     1   --> A''            
     e( 37 - 37) =     11.58700  eV     1   --> A'             
     e( 38 - 38) =     11.59142  eV     1   --> A''            
     e( 39 - 39) =     11.69939  eV     1   --> A'             
     e( 40 - 40) =     12.05296  eV     1   --> A'             
     e( 41 - 41) =     12.31744  eV     1   --> A''            
     e( 42 - 42) =     12.31833  eV     1   --> A'             
     e( 43 - 43) =     12.63459  eV     1   --> A'             
     e( 44 - 44) =     13.71453  eV     1   --> A'             
     e( 45 - 45) =     15.47017  eV     1   --> A'             
     e( 46 - 46) =     15.47288  eV     1   --> A''            
     e( 47 - 47) =     16.02827  eV     1   --> A'             
     e( 48 - 48) =     16.26195  eV     1   --> A'             
     e( 49 - 49) =     16.26692  eV     1   --> A''            
     e( 50 - 50) =     16.59823  eV     1   --> A'             
     e( 51 - 51) =     16.91897  eV     1   --> A'             
     e( 52 - 52) =     17.47982  eV     1   --> A'             
     e( 53 - 53) =     17.49964  eV     1   --> A''            
     e( 54 - 54) =     17.51265  eV     1   --> A'             
     e( 55 - 55) =     17.86571  eV     1   --> A''            
     e( 56 - 56) =     17.87669  eV     1   --> A'             
     e( 57 - 57) =     18.36172  eV     1   --> A'             
     e( 58 - 58) =     18.36722  eV     1   --> A''            
     e( 59 - 59) =     18.50671  eV     1   --> A''            
     e( 60 - 60) =     18.58463  eV     1   --> A'             
     e( 61 - 61) =     18.80857  eV     1   --> A''            
     e( 62 - 62) =     18.81319  eV     1   --> A'             
     e( 63 - 63) =     19.17552  eV     1   --> A'             
     e( 64 - 64) =     19.39685  eV     1   --> A''            

 **************************************************************************

 **************************************************************************

                    xk=(   0.00003,   0.00001,   0.47047  )

     Band symmetry, C_s (m)     point group:

     e(  1 -  1) =    -65.63897  eV     1   --> A'             
     e(  2 -  2) =    -32.61108  eV     1   --> A'             
     e(  3 -  3) =    -32.60971  eV     1   --> A'             
     e(  4 -  4) =    -32.60830  eV     1   --> A''            
     e(  5 -  5) =     -7.79469  eV     1   --> A'             
     e(  6 -  6) =     -7.02355  eV     1   --> A'             
     e(  7 -  7) =     -6.23742  eV     1   --> A''            
     e(  8 -  8) =     -6.22952  eV     1   --> A'             
     e(  9 -  9) =     -6.17079  eV     1   --> A'             
     e( 10 - 10) =     -5.84885  eV     1   --> A'             
     e( 11 - 11) =     -5.82950  eV     1   --> A'             
     e( 12 - 12) =     -5.81601  eV     1   --> A''            
     e( 13 - 13) =      1.01832  eV     1   --> A''            
     e( 14 - 14) =      1.02181  eV     1   --> A'             
     e( 15 - 15) =      1.04621  eV     1   --> A'             
     e( 16 - 16) =      1.48764  eV     1   --> A''            
     e( 17 - 17) =      1.49392  eV     1   --> A'             
     e( 18 - 18) =      2.25998  eV     1   --> A'             
     e( 19 - 19) =      2.58620  eV     1   --> A'             
     e( 20 - 20) =      4.48439  eV     1   --> A'             
     e( 21 - 21) =      4.70152  eV     1   --> A'             
     e( 22 - 22) =      4.71208  eV     1   --> A''            
     e( 23 - 23) =      4.89646  eV     1   --> A''            
     e( 24 - 24) =      4.98639  eV     1   --> A''            
     e( 25 - 25) =      4.99004  eV     1   --> A'             
     e( 26 - 26) =      5.04254  eV     1   --> A'             
     e( 27 - 27) =      5.41911  eV     1   --> A''            
     e( 28 - 28) =      5.51560  eV     1   --> A'             
     e( 29 - 29) =      5.51779  eV     1   --> A''            
     e( 30 - 30) =      5.62031  eV     1   --> A''            
     e( 31 - 31) =      5.62353  eV     1   --> A'             
     e( 32 - 32) =      5.96168  eV     1   --> A'             
     e( 33 - 33) =      6.00759  eV     1   -->   ?
     e( 34 - 34) =      6.00855  eV     1   -->   ?
     e( 35 - 35) =      6.57298  eV     1   --> A'             
     e( 36 - 36) =      6.59284  eV     1   --> A''            
     e( 37 - 37) =     11.60428  eV     1   --> A'             
     e( 38 - 38) =     11.60797  eV     1   --> A''            
     e( 39 - 39) =     11.70751  eV     1   --> A'             
     e( 40 - 40) =     12.14401  eV     1   --> A'             
     e( 41 - 41) =     12.26873  eV     1   --> A''            
     e( 42 - 42) =     12.27004  eV     1   --> A'             
     e( 43 - 43) =     12.62652  eV     1   --> A'             
     e( 44 - 44) =     13.65377  eV     1   --> A'             
     e( 45 - 45) =     15.45424  eV     1   --> A'             
     e( 46 - 46) =     15.45759  eV     1   --> A''            
     e( 47 - 47) =     16.02039  eV     1   --> A'             
     e( 48 - 48) =     16.21299  eV     1   --> A'             
     e( 49 - 49) =     16.21743  eV     1   --> A''            
     e( 50 - 50) =     16.65573  eV     1   --> A'             
     e( 51 - 51) =     16.91774  eV     1   --> A'             
     e( 52 - 52) =     17.42885  eV     1   --> A'             
     e( 53 - 53) =     17.52358  eV     1   --> A''            
     e( 54 - 54) =     17.53492  eV     1   --> A'             
     e( 55 - 55) =     17.88862  eV     1   --> A''            
     e( 56 - 56) =     17.90056  eV     1   --> A'             
     e( 57 - 57) =     18.33018  eV     1   --> A'             
     e( 58 - 58) =     18.33488  eV     1   --> A''            
     e( 59 - 59) =     18.51642  eV     1   --> A'             
     e( 60 - 60) =     18.66386  eV     1   --> A''            
     e( 61 - 61) =     18.86376  eV     1   --> A''            
     e( 62 - 62) =     18.86647  eV     1   --> A'             
     e( 63 - 63) =     19.09302  eV     1   --> A'             
     e( 64 - 64) =     19.41744  eV     1   --> A''            

 **************************************************************************

 **************************************************************************

                    xk=(   0.00003,   0.00002,   0.50183  )

     Band symmetry, C_s (m)     point group:

     e(  1 -  1) =    -65.63897  eV     1   --> A'             
     e(  2 -  2) =    -32.61110  eV     1   --> A'             
     e(  3 -  3) =    -32.60971  eV     1   --> A'             
     e(  4 -  4) =    -32.60830  eV     1   --> A''            
     e(  5 -  5) =     -7.73225  eV     1   --> A'             
     e(  6 -  6) =     -7.10161  eV     1   --> A'             
     e(  7 -  7) =     -6.21878  eV     1   --> A''            
     e(  8 -  8) =     -6.20854  eV     1   --> A'             
     e(  9 -  9) =     -6.16014  eV     1   --> A'             
     e( 10 - 10) =     -5.86652  eV     1   --> A'             
     e( 11 - 11) =     -5.83866  eV     1   --> A'             
     e( 12 - 12) =     -5.83274  eV     1   --> A''            
     e( 13 - 13) =      1.02335  eV     1   --> A'             
     e( 14 - 14) =      1.02849  eV     1   --> A''            
     e( 15 - 15) =      1.03329  eV     1   --> A'             
     e( 16 - 16) =      1.41769  eV     1   --> A''            
     e( 17 - 17) =      1.42330  eV     1   --> A'             
     e( 18 - 18) =      2.27550  eV     1   --> A'             
     e( 19 - 19) =      2.71780  eV     1   --> A'             
     e( 20 - 20) =      4.27929  eV     1   --> A'             
     e( 21 - 21) =      4.81945  eV     1   --> A'             
     e( 22 - 22) =      4.82925  eV     1   --> A''            
     e( 23 - 23) =      4.94284  eV     1   --> A''            
     e( 24 - 24) =      5.02593  eV     1   --> A''            
     e( 25 - 25) =      5.02935  eV     1   --> A'             
     e( 26 - 26) =      5.13458  eV     1   --> A'             
     e( 27 - 27) =      5.36552  eV     1   --> A''            
     e( 28 - 28) =      5.47514  eV     1   --> A'             
     e( 29 - 29) =      5.47822  eV     1   --> A''            
     e( 30 - 30) =      5.59990  eV     1   --> A''            
     e( 31 - 31) =      5.60275  eV     1   --> A'             
     e( 32 - 32) =      5.95763  eV     1   --> A'             
     e( 33 - 33) =      6.00454  eV     1   -->   ?
     e( 34 - 34) =      6.00509  eV     1   -->   ?
     e( 35 - 35) =      6.56604  eV     1   --> A'             
     e( 36 - 36) =      6.58578  eV     1   --> A''            
     e( 37 - 37) =     11.63753  eV     1   --> A'             
     e( 38 - 38) =     11.64063  eV     1   --> A''            
     e( 39 - 39) =     11.72744  eV     1   --> A'             
     e( 40 - 40) =     12.20468  eV     1   --> A'             
     e( 41 - 41) =     12.20897  eV     1   --> A''            
     e( 42 - 42) =     12.21207  eV     1   --> A'             
     e( 43 - 43) =     12.62920  eV     1   --> A'             
     e( 44 - 44) =     13.59407  eV     1   --> A'             
     e( 45 - 45) =     15.45793  eV     1   --> A'             
     e( 46 - 46) =     15.46220  eV     1   --> A''            
     e( 47 - 47) =     16.02244  eV     1   --> A'             
     e( 48 - 48) =     16.13604  eV     1   --> A'             
     e( 49 - 49) =     16.13936  eV     1   --> A''            
     e( 50 - 50) =     16.68895  eV     1   --> A'             
     e( 51 - 51) =     16.89822  eV     1   --> A'             
     e( 52 - 52) =     17.42020  eV     1   --> A'             
     e( 53 - 53) =     17.56683  eV     1   --> A''            
     e( 54 - 54) =     17.57622  eV     1   --> A'             
     e( 55 - 55) =     17.90768  eV     1   --> A''            
     e( 56 - 56) =     17.92147  eV     1   --> A'             
     e( 57 - 57) =     18.30366  eV     1   --> A'             
     e( 58 - 58) =     18.30848  eV     1   --> A''            
     e( 59 - 59) =     18.45437  eV     1   --> A'             
     e( 60 - 60) =     18.82546  eV     1   --> A''            
     e( 61 - 61) =     18.89315  eV     1   --> A''            
     e( 62 - 62) =     18.89533  eV     1   --> A'             
     e( 63 - 63) =     19.02183  eV     1   --> A'             
     e( 64 - 64) =     19.47787  eV     1   --> A''            

 **************************************************************************

 **************************************************************************

                    xk=(   0.00003,   0.00002,   0.53320  )

     Band symmetry, C_s (m)     point group:

     e(  1 -  1) =    -65.63897  eV     1   --> A'             
     e(  2 -  2) =    -32.61109  eV     1   --> A'             
     e(  3 -  3) =    -32.60970  eV     1   --> A'             
     e(  4 -  4) =    -32.60829  eV     1   --> A''            
     e(  5 -  5) =     -7.66832  eV     1   --> A'             
     e(  6 -  6) =     -7.17804  eV     1   --> A'             
     e(  7 -  7) =     -6.20245  eV     1   --> A''            
     e(  8 -  8) =     -6.18967  eV     1   --> A'             
     e(  9 -  9) =     -6.15111  eV     1   --> A'             
     e( 10 - 10) =     -5.88321  eV     1   --> A'             
     e( 11 - 11) =     -5.84753  eV     1   --> A''            
     e( 12 - 12) =     -5.84596  eV     1   --> A'             
     e( 13 - 13) =      1.00613  eV     1   --> A'             
     e( 14 - 14) =      1.04403  eV     1   --> A''            
     e( 15 - 15) =      1.04936  eV     1   --> A'             
     e( 16 - 16) =      1.35504  eV     1   --> A''            
     e( 17 - 17) =      1.35986  eV     1   --> A'             
     e( 18 - 18) =      2.26804  eV     1   --> A'             
     e( 19 - 19) =      2.88496  eV     1   --> A'             
     e( 20 - 20) =      4.07337  eV     1   --> A'             
     e( 21 - 21) =      4.92728  eV     1   --> A'             
     e( 22 - 22) =      4.93505  eV     1   --> A''            
     e( 23 - 23) =      4.99104  eV     1   --> A''            
     e( 24 - 24) =      5.06842  eV     1   --> A''            
     e( 25 - 25) =      5.07055  eV     1   --> A'             
     e( 26 - 26) =      5.21591  eV     1   --> A'             
     e( 27 - 27) =      5.31168  eV     1   --> A''            
     e( 28 - 28) =      5.43208  eV     1   --> A'             
     e( 29 - 29) =      5.43695  eV     1   --> A''            
     e( 30 - 30) =      5.56808  eV     1   --> A''            
     e( 31 - 31) =      5.57147  eV     1   --> A'             
     e( 32 - 32) =      5.94633  eV     1   --> A'             
     e( 33 - 33) =      6.00316  eV     1   -->   ?
     e( 34 - 34) =      6.00336  eV     1   -->   ?
     e( 35 - 35) =      6.56020  eV     1   --> A'             
     e( 36 - 36) =      6.57984  eV     1   --> A''            
     e( 37 - 37) =     11.68491  eV     1   --> A'             
     e( 38 - 38) =     11.68764  eV     1   --> A''            
     e( 39 - 39) =     11.75605  eV     1   --> A'             
     e( 40 - 40) =     12.14012  eV     1   --> A''            
     e( 41 - 41) =     12.14207  eV     1   --> A'             
     e( 42 - 42) =     12.23189  eV     1   --> A'             
     e( 43 - 43) =     12.64960  eV     1   --> A'             
     e( 44 - 44) =     13.53902  eV     1   --> A'             
     e( 45 - 45) =     15.48021  eV     1   --> A'             
     e( 46 - 46) =     15.48571  eV     1   --> A''            
     e( 47 - 47) =     16.03084  eV     1   --> A'             
     e( 48 - 48) =     16.04673  eV     1   --> A'             
     e( 49 - 49) =     16.04702  eV     1   --> A''            
     e( 50 - 50) =     16.68168  eV     1   --> A'             
     e( 51 - 51) =     16.89652  eV     1   --> A'             
     e( 52 - 52) =     17.42860  eV     1   --> A'             
     e( 53 - 53) =     17.61808  eV     1   --> A''            
     e( 54 - 54) =     17.62499  eV     1   --> A'             
     e( 55 - 55) =     17.91513  eV     1   --> A''            
     e( 56 - 56) =     17.93173  eV     1   --> A'             
     e( 57 - 57) =     18.28968  eV     1   --> A'             
     e( 58 - 58) =     18.29529  eV     1   --> A''            
     e( 59 - 59) =     18.40739  eV     1   --> A'             
     e( 60 - 60) =     18.89742  eV     1   --> A''            
     e( 61 - 61) =     18.90002  eV     1   --> A'             
     e( 62 - 62) =     18.96121  eV     1   --> A'             
     e( 63 - 63) =     18.98994  eV     1   --> A''            
     e( 64 - 64) =     19.57427  eV     1   --> A''            

 **************************************************************************

 **************************************************************************

[...]
     e( 31 - 31) =      5.56629  eV     1   --> A'             
     e( 32 - 32) =      5.66569  eV     1   --> A'             
     e( 33 - 33) =      5.67545  eV     1   --> A''            
     e( 34 - 34) =      5.86454  eV     1   --> A''            
     e( 35 - 35) =      6.44023  eV     1   --> A''            
     e( 36 - 36) =      6.50917  eV     1   --> A'             
     e( 37 - 37) =     12.64999  eV     1   --> A'             
     e( 38 - 38) =     12.78476  eV     1   --> A'             
     e( 39 - 39) =     13.03379  eV     1   --> A''            
     e( 40 - 40) =     13.09009  eV     1   --> A'             
     e( 41 - 41) =     13.32902  eV     1   --> A'             
     e( 42 - 42) =     13.33884  eV     1   --> A''            
     e( 43 - 43) =     13.48281  eV     1   --> A'             
     e( 44 - 44) =     13.80422  eV     1   --> A'             
     e( 45 - 45) =     15.15142  eV     1   --> A''            
     e( 46 - 46) =     15.32298  eV     1   --> A'             
     e( 47 - 47) =     15.46117  eV     1   --> A'             
     e( 48 - 48) =     15.67914  eV     1   --> A'             
     e( 49 - 49) =     15.77118  eV     1   --> A''            
     e( 50 - 50) =     16.04582  eV     1   --> A'             
     e( 51 - 51) =     16.46918  eV     1   --> A'             
     e( 52 - 52) =     16.87580  eV     1   --> A'             
     e( 53 - 53) =     17.58548  eV     1   --> A'             
     e( 54 - 54) =     17.66533  eV     1   --> A''            
     e( 55 - 55) =     17.82914  eV     1   --> A'             
     e( 56 - 56) =     18.06268  eV     1   --> A'             
     e( 57 - 57) =     18.06485  eV     1   --> A''            
     e( 58 - 58) =     18.53971  eV     1   --> A'             
     e( 59 - 59) =     18.67731  eV     1   --> A'             
     e( 60 - 60) =     18.86312  eV     1   --> A''            
     e( 61 - 61) =     19.03410  eV     1   --> A''            
     e( 62 - 62) =     19.15409  eV     1   --> A'             
     e( 63 - 63) =     19.29210  eV     1   --> A''            
     e( 64 - 64) =     19.57207  eV     1   --> A'             

 **************************************************************************

 **************************************************************************

                    xk=(   0.50006,   0.28871,   0.53323  )

     Band symmetry, C_s (m)     point group:

     e(  1 -  1) =    -65.63898  eV     1   --> A'             
     e(  2 -  2) =    -32.61115  eV     1   --> A'             
     e(  3 -  3) =    -32.60979  eV     1   --> A'             
     e(  4 -  4) =    -32.60836  eV     1   --> A''            
     e(  5 -  5) =     -7.14147  eV     1   --> A'             
     e(  6 -  6) =     -6.94303  eV     1   --> A'             
     e(  7 -  7) =     -6.74108  eV     1   --> A'             
     e(  8 -  8) =     -6.52350  eV     1   --> A'             
     e(  9 -  9) =     -6.23440  eV     1   --> A''            
     e( 10 - 10) =     -6.10998  eV     1   --> A'             
     e( 11 - 11) =     -5.86057  eV     1   --> A''            
     e( 12 - 12) =     -5.81947  eV     1   --> A'             
     e( 13 - 13) =      1.66820  eV     1   --> A'             
     e( 14 - 14) =      1.67841  eV     1   --> A''            
     e( 15 - 15) =      1.88604  eV     1   --> A''            
     e( 16 - 16) =      2.20377  eV     1   --> A'             
     e( 17 - 17) =      2.45917  eV     1   --> A'             
     e( 18 - 18) =      2.70600  eV     1   --> A'             
     e( 19 - 19) =      2.98892  eV     1   --> A'             
     e( 20 - 20) =      3.20220  eV     1   --> A'             
     e( 21 - 21) =      3.58975  eV     1   --> A''            
     e( 22 - 22) =      3.70063  eV     1   --> A'             
     e( 23 - 23) =      4.05353  eV     1   --> A''            
     e( 24 - 24) =      4.28930  eV     1   --> A'             
     e( 25 - 25) =      4.62708  eV     1   --> A'             
     e( 26 - 26) =      4.92463  eV     1   --> A'             
     e( 27 - 27) =      5.29451  eV     1   --> A''            
     e( 28 - 28) =      5.34314  eV     1   --> A'             
     e( 29 - 29) =      5.38061  eV     1   --> A''            
     e( 30 - 30) =      5.54658  eV     1   --> A''            
     e( 31 - 31) =      5.55966  eV     1   --> A'             
     e( 32 - 32) =      5.63286  eV     1   --> A''            
     e( 33 - 33) =      5.64695  eV     1   --> A'             
     e( 34 - 34) =      5.83145  eV     1   --> A''            
     e( 35 - 35) =      6.42873  eV     1   --> A''            
     e( 36 - 36) =      6.51160  eV     1   --> A'             
     e( 37 - 37) =     12.70895  eV     1   --> A'             
     e( 38 - 38) =     12.83464  eV     1   --> A'             
     e( 39 - 39) =     13.05204  eV     1   --> A''            
     e( 40 - 40) =     13.09359  eV     1   --> A'             
     e( 41 - 41) =     13.25251  eV     1   --> A'             
     e( 42 - 42) =     13.30519  eV     1   --> A''            
     e( 43 - 43) =     13.43378  eV     1   --> A'             
     e( 44 - 44) =     13.74711  eV     1   --> A'             
     e( 45 - 45) =     15.17973  eV     1   --> A''            
     e( 46 - 46) =     15.36429  eV     1   --> A'             
     e( 47 - 47) =     15.50183  eV     1   --> A'             
     e( 48 - 48) =     15.70849  eV     1   --> A'             
     e( 49 - 49) =     15.72426  eV     1   --> A''            
     e( 50 - 50) =     16.05091  eV     1   --> A'             
     e( 51 - 51) =     16.41074  eV     1   --> A'             
     e( 52 - 52) =     16.87992  eV     1   --> A'             
     e( 53 - 53) =     17.62792  eV     1   --> A'             
     e( 54 - 54) =     17.67633  eV     1   --> A''            
     e( 55 - 55) =     17.85217  eV     1   --> A'             
     e( 56 - 56) =     18.03154  eV     1   --> A'             
     e( 57 - 57) =     18.07027  eV     1   --> A''            
     e( 58 - 58) =     18.48771  eV     1   --> A'             
     e( 59 - 59) =     18.70653  eV     1   --> A'             
     e( 60 - 60) =     18.94077  eV     1   --> A''            
     e( 61 - 61) =     19.09606  eV     1   --> A''            
     e( 62 - 62) =     19.11533  eV     1   --> A'             
     e( 63 - 63) =     19.31127  eV     1   --> A''            
     e( 64 - 64) =     19.58804  eV     1   --> A'             

 **************************************************************************

 **************************************************************************

                    xk=(   0.50006,   0.28871,   0.56460  )

     Band symmetry, C_s (m)     point group:

     e(  1 -  1) =    -65.63898  eV     1   --> A'             
     e(  2 -  2) =    -32.61113  eV     1   --> A'             
     e(  3 -  3) =    -32.60979  eV     1   --> A'             
     e(  4 -  4) =    -32.60834  eV     1   --> A''            
     e(  5 -  5) =     -7.08025  eV     1   --> A'             
     e(  6 -  6) =     -6.89923  eV     1   --> A'             
     e(  7 -  7) =     -6.80777  eV     1   --> A'             
     e(  8 -  8) =     -6.57018  eV     1   --> A'             
     e(  9 -  9) =     -6.21771  eV     1   --> A''            
     e( 10 - 10) =     -6.09949  eV     1   --> A'             
     e( 11 - 11) =     -5.87713  eV     1   --> A''            
     e( 12 - 12) =     -5.83260  eV     1   --> A'             
     e( 13 - 13) =      1.65718  eV     1   --> A'             
     e( 14 - 14) =      1.67313  eV     1   --> A''            
     e( 15 - 15) =      1.86701  eV     1   --> A''            
     e( 16 - 16) =      2.22358  eV     1   --> A'             
     e( 17 - 17) =      2.52710  eV     1   --> A'             
     e( 18 - 18) =      2.70022  eV     1   --> A'             
     e( 19 - 19) =      2.91258  eV     1   --> A'             
     e( 20 - 20) =      3.19060  eV     1   --> A'             
     e( 21 - 21) =      3.61758  eV     1   --> A''            
     e( 22 - 22) =      3.69356  eV     1   --> A'             
     e( 23 - 23) =      4.00772  eV     1   --> A''            
     e( 24 - 24) =      4.27467  eV     1   --> A'             
     e( 25 - 25) =      4.74196  eV     1   --> A'             
     e( 26 - 26) =      5.02457  eV     1   --> A'             
     e( 27 - 27) =      5.23392  eV     1   --> A'             
     e( 28 - 28) =      5.36937  eV     1   --> A''            
     e( 29 - 29) =      5.43965  eV     1   --> A''            
     e( 30 - 30) =      5.47289  eV     1   --> A'             
     e( 31 - 31) =      5.55165  eV     1   --> A''            
     e( 32 - 32) =      5.59989  eV     1   --> A''            
     e( 33 - 33) =      5.68812  eV     1   --> A'             
     e( 34 - 34) =      5.78847  eV     1   --> A''            
     e( 35 - 35) =      6.41976  eV     1   --> A''            
     e( 36 - 36) =      6.51171  eV     1   --> A'             
     e( 37 - 37) =     12.76761  eV     1   --> A'             
     e( 38 - 38) =     12.88526  eV     1   --> A'             
     e( 39 - 39) =     13.06408  eV     1   --> A''            
     e( 40 - 40) =     13.09285  eV     1   --> A'             
     e( 41 - 41) =     13.17314  eV     1   --> A'             
     e( 42 - 42) =     13.28169  eV     1   --> A''            
     e( 43 - 43) =     13.39591  eV     1   --> A'             
     e( 44 - 44) =     13.70397  eV     1   --> A'             
     e( 45 - 45) =     15.20409  eV     1   --> A''            
     e( 46 - 46) =     15.40196  eV     1   --> A'             
     e( 47 - 47) =     15.51987  eV     1   --> A'             
     e( 48 - 48) =     15.68642  eV     1   --> A''            
     e( 49 - 49) =     15.73507  eV     1   --> A'             
     e( 50 - 50) =     16.07399  eV     1   --> A'             
     e( 51 - 51) =     16.34766  eV     1   --> A'             
     e( 52 - 52) =     16.88358  eV     1   --> A'             
     e( 53 - 53) =     17.67259  eV     1   --> A'             
     e( 54 - 54) =     17.68617  eV     1   --> A''            
     e( 55 - 55) =     17.85918  eV     1   --> A'             
     e( 56 - 56) =     18.01640  eV     1   --> A'             
     e( 57 - 57) =     18.07277  eV     1   --> A''            
     e( 58 - 58) =     18.42808  eV     1   --> A'             
     e( 59 - 59) =     18.74926  eV     1   --> A'             
     e( 60 - 60) =     19.01070  eV     1   --> A''            
     e( 61 - 61) =     19.07677  eV     1   --> A'             
     e( 62 - 62) =     19.15944  eV     1   --> A''            
     e( 63 - 63) =     19.32547  eV     1   --> A''            
     e( 64 - 64) =     19.57117  eV     1   --> A''            

 **************************************************************************

 **************************************************************************

                    xk=(   0.50006,   0.28871,   0.59596  )

     Band symmetry, C_s (m)     point group:

     e(  1 -  1) =    -65.63897  eV     1   --> A'             
     e(  2 -  2) =    -32.61112  eV     1   --> A'             
     e(  3 -  3) =    -32.60978  eV     1   --> A'             
     e(  4 -  4) =    -32.60834  eV     1   --> A''            
     e(  5 -  5) =     -7.01884  eV     1   --> A'             
     e(  6 -  6) =     -6.88187  eV     1   --> A'             
     e(  7 -  7) =     -6.85519  eV     1   --> A'             
     e(  8 -  8) =     -6.60686  eV     1   --> A'             
     e(  9 -  9) =     -6.20666  eV     1   --> A''            
     e( 10 - 10) =     -6.09220  eV     1   --> A'             
     e( 11 - 11) =     -5.88809  eV     1   --> A''            
     e( 12 - 12) =     -5.84127  eV     1   --> A'             
     e( 13 - 13) =      1.65051  eV     1   --> A'             
     e( 14 - 14) =      1.67062  eV     1   --> A''            
     e( 15 - 15) =      1.85476  eV     1   --> A''            
     e( 16 - 16) =      2.23544  eV     1   --> A'             
     e( 17 - 17) =      2.59017  eV     1   --> A'             
     e( 18 - 18) =      2.69400  eV     1   --> A'             
     e( 19 - 19) =      2.84705  eV     1   --> A'             
     e( 20 - 20) =      3.18351  eV     1   --> A'             
     e( 21 - 21) =      3.63922  eV     1   --> A''            
     e( 22 - 22) =      3.68971  eV     1   --> A'             
     e( 23 - 23) =      3.97518  eV     1   --> A''            
     e( 24 - 24) =      4.26444  eV     1   --> A'             
     e( 25 - 25) =      4.85862  eV     1   --> A'             
     e( 26 - 26) =      5.07380  eV     1   --> A'             
     e( 27 - 27) =      5.17212  eV     1   --> A'             
     e( 28 - 28) =      5.37818  eV     1   --> A'             
     e( 29 - 29) =      5.42340  eV     1   --> A''            
     e( 30 - 30) =      5.49019  eV     1   --> A''            
     e( 31 - 31) =      5.52819  eV     1   --> A''            
     e( 32 - 32) =      5.60605  eV     1   --> A''            
     e( 33 - 33) =      5.71719  eV     1   --> A'             
     e( 34 - 34) =      5.73980  eV     1   --> A''            
     e( 35 - 35) =      6.41400  eV     1   --> A''            
     e( 36 - 36) =      6.51090  eV     1   --> A'             
     e( 37 - 37) =     12.81507  eV     1   --> A'             
     e( 38 - 38) =     12.93623  eV     1   --> A'             
     e( 39 - 39) =     13.07075  eV     1   --> A''            
     e( 40 - 40) =     13.08661  eV     1   --> A'             
     e( 41 - 41) =     13.10113  eV     1   --> A'             
     e( 42 - 42) =     13.26794  eV     1   --> A''            
     e( 43 - 43) =     13.37058  eV     1   --> A'             
     e( 44 - 44) =     13.67734  eV     1   --> A'             
     e( 45 - 45) =     15.22103  eV     1   --> A''            
     e( 46 - 46) =     15.43188  eV     1   --> A'             
     e( 47 - 47) =     15.52107  eV     1   --> A'             
     e( 48 - 48) =     15.66132  eV     1   --> A''            
     e( 49 - 49) =     15.75296  eV     1   --> A'             
     e( 50 - 50) =     16.11131  eV     1   --> A'             
     e( 51 - 51) =     16.28702  eV     1   --> A'             
     e( 52 - 52) =     16.88615  eV     1   --> A'             
     e( 53 - 53) =     17.69297  eV     1   --> A''            
     e( 54 - 54) =     17.71424  eV     1   --> A'             
     e( 55 - 55) =     17.84270  eV     1   --> A'             
     e( 56 - 56) =     18.02223  eV     1   --> A'             
     e( 57 - 57) =     18.07363  eV     1   --> A''            
     e( 58 - 58) =     18.38081  eV     1   --> A'             
     e( 59 - 59) =     18.78664  eV     1   --> A'             
     e( 60 - 60) =     19.04469  eV     1   --> A'             
     e( 61 - 61) =     19.05988  eV     1   --> A''            
     e( 62 - 62) =     19.21931  eV     1   --> A''            
     e( 63 - 63) =     19.33220  eV     1   --> A''            
     e( 64 - 64) =     19.51505  eV     1   --> A''            

 **************************************************************************

 **************************************************************************

                    xk=(   0.50007,   0.28871,   0.62733  )

     Band symmetry, C_s (m)     point group:

     e(  1 -  1) =    -65.63897  eV     1   --> A'             
     e(  2 -  2) =    -32.61110  eV     1   --> A'             
     e(  3 -  3) =    -32.60978  eV     1   --> A'             
     e(  4 -  4) =    -32.60832  eV     1   --> A''            
     e(  5 -  5) =     -6.97505  eV     1   --> A'             
     e(  6 -  6) =     -6.92189  eV     1   --> A'             
     e(  7 -  7) =     -6.84586  eV     1   --> A'             
     e(  8 -  8) =     -6.62179  eV     1   --> A'             
     e(  9 -  9) =     -6.20277  eV     1   --> A''            
     e( 10 - 10) =     -6.08957  eV     1   --> A'             
     e( 11 - 11) =     -5.89195  eV     1   --> A''            
     e( 12 - 12) =     -5.84432  eV     1   --> A'             
     e( 13 - 13) =      1.64828  eV     1   --> A'             
     e( 14 - 14) =      1.66992  eV     1   --> A''            
     e( 15 - 15) =      1.85051  eV     1   --> A''            
     e( 16 - 16) =      2.23939  eV     1   --> A'             
     e( 17 - 17) =      2.62310  eV     1   --> A'             
     e( 18 - 18) =      2.68834  eV     1   --> A'             
     e( 19 - 19) =      2.81686  eV     1   --> A'             
     e( 20 - 20) =      3.18111  eV     1   --> A'             
     e( 21 - 21) =      3.64767  eV     1   --> A''            
     e( 22 - 22) =      3.68851  eV     1   --> A'             
     e( 23 - 23) =      3.96309  eV     1   --> A''            
     e( 24 - 24) =      4.26079  eV     1   --> A'             
     e( 25 - 25) =      4.95824  eV     1   --> A'             
     e( 26 - 26) =      4.99462  eV     1   --> A'             
     e( 27 - 27) =      5.22190  eV     1   --> A'             
     e( 28 - 28) =      5.31107  eV     1   --> A'             
     e( 29 - 29) =      5.45462  eV     1   --> A''            
     e( 30 - 30) =      5.49628  eV     1   --> A''            
     e( 31 - 31) =      5.51398  eV     1   --> A''            
     e( 32 - 32) =      5.62716  eV     1   --> A''            
     e( 33 - 33) =      5.70862  eV     1   --> A''            
     e( 34 - 34) =      5.72732  eV     1   --> A'             
     e( 35 - 35) =      6.41202  eV     1   --> A''            
     e( 36 - 36) =      6.51046  eV     1   --> A'             
     e( 37 - 37) =     12.83403  eV     1   --> A'             
     e( 38 - 38) =     12.97232  eV     1   --> A'             
     e( 39 - 39) =     13.04849  eV     1   --> A'             
     e( 40 - 40) =     13.07286  eV     1   --> A''            
     e( 41 - 41) =     13.09163  eV     1   --> A'             
     e( 42 - 42) =     13.26344  eV     1   --> A''            
     e( 43 - 43) =     13.36140  eV     1   --> A'             
     e( 44 - 44) =     13.66838  eV     1   --> A'             
     e( 45 - 45) =     15.22717  eV     1   --> A''            
     e( 46 - 46) =     15.44468  eV     1   --> A'             
     e( 47 - 47) =     15.51817  eV     1   --> A'             
     e( 48 - 48) =     15.65244  eV     1   --> A''            
     e( 49 - 49) =     15.75909  eV     1   --> A'             
     e( 50 - 50) =     16.13659  eV     1   --> A'             
     e( 51 - 51) =     16.25433  eV     1   --> A'             
     e( 52 - 52) =     16.88707  eV     1   --> A'             
     e( 53 - 53) =     17.69539  eV     1   --> A''            
     e( 54 - 54) =     17.73575  eV     1   --> A'             
     e( 55 - 55) =     17.82752  eV     1   --> A'             
     e( 56 - 56) =     18.02881  eV     1   --> A'             
     e( 57 - 57) =     18.07381  eV     1   --> A''            
     e( 58 - 58) =     18.36216  eV     1   --> A'             
     e( 59 - 59) =     18.80239  eV     1   --> A'             
     e( 60 - 60) =     19.03113  eV     1   --> A'             
     e( 61 - 61) =     19.07749  eV     1   --> A''            
     e( 62 - 62) =     19.24980  eV     1   --> A''            
     e( 63 - 63) =     19.33197  eV     1   --> A''            
     e( 64 - 64) =     19.48885  eV     1   --> A''            

 **************************************************************************

     BANDS        :    51.53s CPU        54.24s WALL


   This run was terminated on:  17:34:34   7Aug2024            

=------------------------------------------------------------------------------=
   JOB DONE.
=------------------------------------------------------------------------------=
