
     Program PWSCF v.6.0 (svn rev. 13079) starts on  7Aug2024 at 13:44:32 

     This program is part of the open-source Quantum ESPRESSO suite
     for quantum simulation of materials; please cite
         "P. Giannozzi et al., J. Phys.:Condens. Matter 21 395502 (2009);
          URL http://www.quantum-espresso.org", 
     in publications or presentations arising from this work. More details at
     http://www.quantum-espresso.org/quote

     Parallel version (MPI), running on    32 processors
     R & G space division:  proc/nbgrp/npool/nimage =      32
     Waiting for input...
     Reading input from standard input

     Current dimensions of program PWSCF are:
     Max number of different atomic species (ntypx) = 10
     Max number of k-points (npk) =  40000
     Max angular momentum in pseudopotentials (lmaxx) =  3
               file Mg.pbesol-spnl-rrkjus_psl.1.0.0.UPF: wavefunction(s)  2P renormalized

     Subspace diagonalization in iterative solution of the eigenvalue problem:
     one sub-group per band group will be used
     ELPA distributed-memory algorithm (size of sub-group:  4*  4 procs)


     Parallelization info
     --------------------
     sticks:   dense  smooth     PW     G-vecs:    dense   smooth      PW
     Min         164      95     26                 7720     3423     509
     Max         165      96     27                 7723     3426     513
     Sum        5251    3067    859               247061   109583   16343



     bravais-lattice index     =            0
     lattice parameter (alat)  =      11.7827  a.u.
     unit-cell volume          =    1133.8588 (a.u.)^3
     number of atoms/cell      =           16
     number of atomic types    =            3
     number of electrons       =        71.00
     number of Kohn-Sham states=           43
     kinetic-energy cutoff     =      80.0000  Ry
     charge density cutoff     =     550.0000  Ry
     convergence threshold     =      1.0E-03
     mixing beta               =       0.4000
     number of iterations used =            8  plain     mixing
     Exchange-correlation      = PBESOL ( 1  4 10  8 0 0)
     nstep                     =           50


     celldm(1)=  11.782744  celldm(2)=   0.000000  celldm(3)=   0.000000
     celldm(4)=   0.000000  celldm(5)=   0.000000  celldm(6)=   0.000000

     crystal axes: (cart. coord. in units of alat)
               a(1) = (   1.000000  -0.000000   0.000000 )  
               a(2) = (  -0.500000   0.866025  -0.000000 )  
               a(3) = (   0.000000  -0.000000   0.800367 )  

     reciprocal axes: (cart. coord. in units 2 pi/alat)
               b(1) = (  1.000000  0.577350  0.000000 )  
               b(2) = (  0.000000  1.154701  0.000000 )  
               b(3) = (  0.000000  0.000000  1.249427 )  


     PseudoPot. # 1 for Al read from file:
     pseudo/Al.pbesol-n-rrkjus_psl.1.0.0.UPF
     MD5 check sum: dbcefca01057e646ce9c389674ce64eb
     Pseudo is Ultrasoft + core correction, Zval =  3.0
     Generated using "atomic" code by A. Dal Corso  v.6.3
     Using radial grid of 1135 points,  6 beta functions with: 
                l(1) =   0
                l(2) =   0
                l(3) =   1
                l(4) =   1
                l(5) =   2
                l(6) =   2
     Q(r) pseudized with 0 coefficients 


     PseudoPot. # 2 for  N read from file:
     pseudo/N.pbesol-n-rrkjus_psl.1.0.0.UPF
     MD5 check sum: 006b6b9dfb5634708511e9f3c875aba4
     Pseudo is Ultrasoft + core correction, Zval =  5.0
     Generated using "atomic" code by A. Dal Corso  v.6.3MaX
     Using radial grid of 1085 points,  4 beta functions with: 
                l(1) =   0
                l(2) =   0
                l(3) =   1
                l(4) =   1
     Q(r) pseudized with 0 coefficients 


     PseudoPot. # 3 for Mg read from file:
     pseudo/Mg.pbesol-spnl-rrkjus_psl.1.0.0.UPF
     MD5 check sum: 8c1d17886ddcb5f8688becc8b90c6406
     Pseudo is Ultrasoft + core correction, Zval = 10.0
     Generated using "atomic" code by A. Dal Corso  v.6.3
     Using radial grid of 1129 points,  4 beta functions with: 
                l(1) =   0
                l(2) =   0
                l(3) =   1
                l(4) =   1
     Q(r) pseudized with 0 coefficients 


     atomic species   valence    mass     pseudopotential
        Al             3.00    26.98150     Al( 1.00)
        N              5.00    14.00670      N( 1.00)
        Mg            10.00    24.30500     Mg( 1.00)

      2 Sym. Ops. (no inversion) found



   Cartesian axes

     site n.     atom                  positions (alat units)
         1           Mg  tau(   1) = (   0.2499967   0.1443362   0.3994196  )
         2           Al  tau(   2) = (  -0.0000005   0.5773506   0.3994188  )
         3           Al  tau(   3) = (   0.7500023   0.1443362   0.3994196  )
         4           Al  tau(   4) = (   0.4999995   0.5773538   0.3994196  )
         5           Al  tau(   5) = (   0.0000005   0.2886764   0.7995991  )
         6           Al  tau(   6) = (  -0.2499981   0.7216867   0.7995991  )
         7           Al  tau(   7) = (   0.5000005   0.2886748   0.7996135  )
         8           Al  tau(   8) = (   0.2499991   0.7216867   0.7995991  )
         9           N   tau(   9) = (   0.2499986   0.1443373   0.7050899  )
        10           N   tau(  10) = (  -0.0000005   0.5773506   0.7050810  )
        11           N   tau(  11) = (   0.7500004   0.1443373   0.7050899  )
        12           N   tau(  12) = (   0.4999995   0.5773517   0.7050899  )
        13           N   tau(  13) = (   0.0000005   0.2886810   0.3048985  )
        14           N   tau(  14) = (  -0.2499942   0.7216845   0.3048985  )
        15           N   tau(  15) = (   0.5000005   0.2886748   0.3049143  )
        16           N   tau(  16) = (   0.2499952   0.7216845   0.3048985  )

     number of k points=   400  gaussian smearing, width (Ry)=  0.0200

     Number of k-points >= 100: set verbosity='high' to print them.

     Dense  grid:   247061 G-vectors     FFT dimensions: (  90,  90,  72)

     Smooth grid:   109583 G-vectors     FFT dimensions: (  72,  72,  54)

     Estimated max dynamical RAM per process >     121.30Mb

     Estimated total allocated dynamical RAM >    3881.61Mb

     Initial potential from superposition of free atoms

     starting charge   70.98373, renormalised to   71.00000
     Starting wfc are   65 randomized atomic wfcs

     total cpu time spent up to now is       31.7 secs

     per-process dynamical memory:   147.3 Mb

     Self-consistent Calculation

     iteration #  1     ecut=    80.00 Ry     beta=0.40
     Davidson diagonalization with overlap
     ethr =  1.00E-02,  avg # of iterations =  3.6

     total cpu time spent up to now is      102.4 secs

     total energy              =    -325.46350780 Ry
     Harris-Foulkes estimate   =    -327.62581456 Ry
     estimated scf accuracy    <       4.26926009 Ry

     iteration #  2     ecut=    80.00 Ry     beta=0.40
     Davidson diagonalization with overlap
     ethr =  6.01E-03,  avg # of iterations =  2.0

     negative rho (up, down):  1.625E-02 0.000E+00

     total cpu time spent up to now is      168.4 secs

     total energy              =    -326.48757660 Ry
     Harris-Foulkes estimate   =    -326.40636179 Ry
     estimated scf accuracy    <       0.23461235 Ry

     iteration #  3     ecut=    80.00 Ry     beta=0.40
     Davidson diagonalization with overlap
     ethr =  3.30E-04,  avg # of iterations =  5.8

     total cpu time spent up to now is      263.8 secs

     total energy              =    -325.19469595 Ry
     Harris-Foulkes estimate   =    -327.18233094 Ry
     estimated scf accuracy    <      22.88886899 Ry

     iteration #  4     ecut=    80.00 Ry     beta=0.40
     Davidson diagonalization with overlap
     ethr =  3.30E-04,  avg # of iterations =  3.2

     negative rho (up, down):  3.366E-03 0.000E+00

     total cpu time spent up to now is      347.2 secs

     total energy              =    -326.43867639 Ry
     Harris-Foulkes estimate   =    -326.38363722 Ry
     estimated scf accuracy    <       0.24188931 Ry

     iteration #  5     ecut=    80.00 Ry     beta=0.40
     Davidson diagonalization with overlap
     ethr =  3.30E-04,  avg # of iterations =  3.0

     total cpu time spent up to now is      409.8 secs

     total energy              =    -326.21914520 Ry
     Harris-Foulkes estimate   =    -326.56686126 Ry
     estimated scf accuracy    <       4.83540003 Ry

     iteration #  6     ecut=    80.00 Ry     beta=0.40
     Davidson diagonalization with overlap
     ethr =  3.30E-04,  avg # of iterations =  3.0

     total cpu time spent up to now is      476.9 secs

     total energy              =    -326.35789003 Ry
     Harris-Foulkes estimate   =    -326.42800715 Ry
     estimated scf accuracy    <       0.61792515 Ry

     iteration #  7     ecut=    80.00 Ry     beta=0.40
     Davidson diagonalization with overlap
     ethr =  3.30E-04,  avg # of iterations =  2.0

     total cpu time spent up to now is      533.1 secs

     total energy              =    -326.38293712 Ry
     Harris-Foulkes estimate   =    -326.39535357 Ry
     estimated scf accuracy    <       0.22060771 Ry

     iteration #  8     ecut=    80.00 Ry     beta=0.40
     Davidson diagonalization with overlap
     ethr =  3.11E-04,  avg # of iterations =  1.8

     total cpu time spent up to now is      584.3 secs

     total energy              =    -326.38824664 Ry
     Harris-Foulkes estimate   =    -326.38689223 Ry
     estimated scf accuracy    <       0.09726675 Ry

     iteration #  9     ecut=    80.00 Ry     beta=0.40
     Davidson diagonalization with overlap
     ethr =  1.37E-04,  avg # of iterations =  1.0

     total cpu time spent up to now is      633.6 secs

     total energy              =    -326.38324506 Ry
     Harris-Foulkes estimate   =    -326.38837996 Ry
     estimated scf accuracy    <       0.09123347 Ry

     iteration # 10     ecut=    80.00 Ry     beta=0.40
     Davidson diagonalization with overlap
     ethr =  1.28E-04,  avg # of iterations =  1.6

     total cpu time spent up to now is      684.1 secs

     total energy              =    -326.38266765 Ry
     Harris-Foulkes estimate   =    -326.38458011 Ry
     estimated scf accuracy    <       0.04271743 Ry

     iteration # 11     ecut=    80.00 Ry     beta=0.40
     Davidson diagonalization with overlap
     ethr =  6.02E-05,  avg # of iterations =  1.9

     total cpu time spent up to now is      735.2 secs

     total energy              =    -326.38326499 Ry
     Harris-Foulkes estimate   =    -326.38318962 Ry
     estimated scf accuracy    <       0.02249830 Ry

     iteration # 12     ecut=    80.00 Ry     beta=0.40
     Davidson diagonalization with overlap
     ethr =  3.17E-05,  avg # of iterations =  1.0

     total cpu time spent up to now is      784.3 secs

     total energy              =    -326.38022558 Ry
     Harris-Foulkes estimate   =    -326.38336035 Ry
     estimated scf accuracy    <       0.02052573 Ry

     iteration # 13     ecut=    80.00 Ry     beta=0.40
     Davidson diagonalization with overlap
     ethr =  2.89E-05,  avg # of iterations =  2.0

     total cpu time spent up to now is      838.3 secs

     total energy              =    -326.38183321 Ry
     Harris-Foulkes estimate   =    -326.38164256 Ry
     estimated scf accuracy    <       0.00204971 Ry

     iteration # 14     ecut=    80.00 Ry     beta=0.40
     Davidson diagonalization with overlap
     c_bands:  1 eigenvalues not converged
     c_bands:  1 eigenvalues not converged
     c_bands:  1 eigenvalues not converged
     c_bands:  1 eigenvalues not converged
     ethr =  2.89E-06,  avg # of iterations =  2.9

     total cpu time spent up to now is      893.7 secs

     total energy              =    -326.38143458 Ry
     Harris-Foulkes estimate   =    -326.38189168 Ry
     estimated scf accuracy    <       0.00259400 Ry

     iteration # 15     ecut=    80.00 Ry     beta=0.40
     Davidson diagonalization with overlap
     ethr =  2.89E-06,  avg # of iterations =  2.0

     total cpu time spent up to now is      949.9 secs

     End of self-consistent calculation

     Number of k-points >= 100: set verbosity='high' to print the bands.

     the Fermi energy is     6.8529 ev

!    total energy              =    -326.38247704 Ry
     Harris-Foulkes estimate   =    -326.38174390 Ry
     estimated scf accuracy    <       0.00040491 Ry

     The total energy is the sum of the following terms:

     one-electron contribution =    -131.78177330 Ry
     hartree contribution      =     104.92748429 Ry
     xc contribution           =     -82.52446469 Ry
     ewald contribution        =    -216.98793560 Ry
     smearing contrib. (-TS)   =      -0.01578774 Ry

     convergence has been achieved in  15 iterations

     Forces acting on atoms (Ry/au):

     atom    1 type  3   force =    -0.00361300   -0.00208597   -0.02050292
     atom    2 type  1   force =    -0.00735320   -0.00424537   -0.01677037
     atom    3 type  1   force =    -0.00342625    0.00268217   -0.01679340
     atom    4 type  1   force =     0.00060970   -0.00430830   -0.01679340
     atom    5 type  1   force =     0.00178148   -0.00488977   -0.00960915
     atom    6 type  1   force =    -0.00334393    0.00398770   -0.00960915
     atom    7 type  1   force =    -0.00856305   -0.00494388   -0.00955453
     atom    8 type  1   force =    -0.00329810   -0.00190416   -0.01174075
     atom    9 type  2   force =    -0.00142731   -0.00082406    0.16931405
     atom   10 type  2   force =     0.02770872    0.01599764   -0.00578191
     atom   11 type  2   force =    -0.00260836    0.02230959    0.00595991
     atom   12 type  2   force =     0.01801649   -0.01341370    0.00595991
     atom   13 type  2   force =    -0.05595810    0.03401259   -0.02566337
     atom   14 type  2   force =     0.00147672   -0.06546743   -0.02566337
     atom   15 type  2   force =     0.04041084    0.02333121   -0.02416890
     atom   16 type  2   force =    -0.00041267   -0.00023825    0.01141734

     Total force =     0.213462     Total SCF correction =     0.007886


     entering subroutine stress ...

          total   stress  (Ry/bohr**3)                   (kbar)     P=   52.33
   0.00039290   0.00000186   0.00000160         57.80      0.27      0.24
   0.00000186   0.00039075   0.00000092          0.27     57.48      0.14
   0.00000160   0.00000092   0.00028361          0.24      0.14     41.72


     BFGS Geometry Optimization

     number of scf cycles    =   1
     number of bfgs steps    =   0

     enthalpy new            =    -326.3824770407 Ry

     new trust radius        =       0.1693220700 bohr
     new conv_thr            =       0.0010000000 Ry

     new unit-cell volume =   1164.37915 a.u.^3 (   172.54319 Ang^3 )

CELL_PARAMETERS (angstrom)
   6.296404626   0.000290007   0.000249244
  -3.147951159   5.452411348   0.000000000
   0.000199487   0.000115174   5.025797923

ATOMIC_POSITIONS (crystal)
Mg       0.332920418   0.166460709   0.496871613
Al       0.332500913   0.666250956   0.497266476
Al       0.833175508   0.166927983   0.497264966
Al       0.833175508   0.666248526   0.497264966
Al       0.166579523   0.332855658   0.998021899
Al       0.166579523   0.833722865   0.998021899
Al       0.665698007   0.332848503   0.998045699
Al       0.666291936   0.833145468   0.997795867
N        0.333170223   0.166585611   0.898912362
N        0.336468514   0.668234757   0.880334302
N        0.834205423   0.168852692   0.881590496
N        0.834205423   0.665353729   0.881590496
N        0.163588012   0.336673338   0.378227194
N        0.163588012   0.826913674   0.378227194
N        0.671239883   0.335619442   0.378405383
N        0.666613175   0.833306087   0.382159185



     Writing output data file aln.save
     NEW-OLD atomic charge density approx. for the potential
     extrapolated charge   72.86060, renormalised to   71.00000

     total cpu time spent up to now is      991.1 secs

     per-process dynamical memory:   305.5 Mb

     Self-consistent Calculation

     iteration #  1     ecut=    80.00 Ry     beta=0.40
     Davidson diagonalization with overlap
     c_bands:  1 eigenvalues not converged
     c_bands:  1 eigenvalues not converged
     c_bands:  1 eigenvalues not converged
     c_bands:  1 eigenvalues not converged
     c_bands:  1 eigenvalues not converged
     c_bands:  1 eigenvalues not converged
     c_bands:  1 eigenvalues not converged
     ethr =  1.00E-06,  avg # of iterations = 12.0

     negative rho (up, down):  6.004E-03 0.000E+00

     total cpu time spent up to now is     1164.6 secs

     total energy              =    -326.31241813 Ry
     Harris-Foulkes estimate   =    -323.43416537 Ry
     estimated scf accuracy    <       0.24019379 Ry

     iteration #  2     ecut=    80.00 Ry     beta=0.40
     Davidson diagonalization with overlap
     ethr =  3.38E-04,  avg # of iterations =  3.0

     total cpu time spent up to now is     1253.7 secs

     total energy              =    -326.50454198 Ry
     Harris-Foulkes estimate   =    -326.90853137 Ry
     estimated scf accuracy    <       7.57267136 Ry

     iteration #  3     ecut=    80.00 Ry     beta=0.40
     Davidson diagonalization with overlap
     ethr =  3.38E-04,  avg # of iterations =  3.0

     negative rho (up, down):  4.802E-03 0.000E+00

     total cpu time spent up to now is     1316.9 secs

     total energy              =    -326.54455577 Ry
     Harris-Foulkes estimate   =    -326.63007781 Ry
     estimated scf accuracy    <       2.01657821 Ry

     iteration #  4     ecut=    80.00 Ry     beta=0.40
     Davidson diagonalization with overlap
     ethr =  3.38E-04,  avg # of iterations =  3.0

     total cpu time spent up to now is     1388.5 secs

     total energy              =    -325.96967664 Ry
     Harris-Foulkes estimate   =    -326.83799202 Ry
     estimated scf accuracy    <       5.64157035 Ry

     iteration #  5     ecut=    80.00 Ry     beta=0.40
     Davidson diagonalization with overlap
     ethr =  3.38E-04,  avg # of iterations =  3.0

     total cpu time spent up to now is     1466.5 secs

     total energy              =    -326.43454622 Ry
     Harris-Foulkes estimate   =    -326.43735731 Ry
     estimated scf accuracy    <       0.26264038 Ry

     iteration #  6     ecut=    80.00 Ry     beta=0.40
     Davidson diagonalization with overlap
     ethr =  3.38E-04,  avg # of iterations =  2.0

     total cpu time spent up to now is     1522.2 secs

     total energy              =    -326.39380677 Ry
     Harris-Foulkes estimate   =    -326.45379756 Ry
     estimated scf accuracy    <       0.41752913 Ry

     iteration #  7     ecut=    80.00 Ry     beta=0.40
     Davidson diagonalization with overlap
     ethr =  3.38E-04,  avg # of iterations =  2.0

     total cpu time spent up to now is     1578.1 secs

     total energy              =    -326.40195917 Ry
     Harris-Foulkes estimate   =    -326.42586779 Ry
     estimated scf accuracy    <       0.11429778 Ry

     iteration #  8     ecut=    80.00 Ry     beta=0.40
     Davidson diagonalization with overlap
     ethr =  1.61E-04,  avg # of iterations =  2.0

     total cpu time spent up to now is     1634.0 secs

     total energy              =    -326.41122706 Ry
     Harris-Foulkes estimate   =    -326.41143361 Ry
     estimated scf accuracy    <       0.01065804 Ry

     iteration #  9     ecut=    80.00 Ry     beta=0.40
     Davidson diagonalization with overlap
     ethr =  1.50E-05,  avg # of iterations =  2.0

     total cpu time spent up to now is     1691.3 secs

     total energy              =    -326.41102733 Ry
     Harris-Foulkes estimate   =    -326.41315911 Ry
     estimated scf accuracy    <       0.01943002 Ry

     iteration # 10     ecut=    80.00 Ry     beta=0.40
     Davidson diagonalization with overlap
     ethr =  1.50E-05,  avg # of iterations =  2.0

     total cpu time spent up to now is     1747.2 secs

     total energy              =    -326.41143881 Ry
     Harris-Foulkes estimate   =    -326.41216125 Ry
     estimated scf accuracy    <       0.00667077 Ry

     iteration # 11     ecut=    80.00 Ry     beta=0.40
     Davidson diagonalization with overlap
     ethr =  9.40E-06,  avg # of iterations =  2.7

     total cpu time spent up to now is     1805.9 secs

     total energy              =    -326.41108930 Ry
     Harris-Foulkes estimate   =    -326.41240672 Ry
     estimated scf accuracy    <       0.00891641 Ry

     iteration # 12     ecut=    80.00 Ry     beta=0.40
     Davidson diagonalization with overlap
     ethr =  9.40E-06,  avg # of iterations =  2.0

     total cpu time spent up to now is     1862.4 secs

     total energy              =    -326.41145634 Ry
     Harris-Foulkes estimate   =    -326.41218689 Ry
     estimated scf accuracy    <       0.00616465 Ry

     iteration # 13     ecut=    80.00 Ry     beta=0.40
     Davidson diagonalization with overlap
     ethr =  8.68E-06,  avg # of iterations =  2.0

     total cpu time spent up to now is     1917.5 secs

     total energy              =    -326.41163116 Ry
     Harris-Foulkes estimate   =    -326.41169488 Ry
     estimated scf accuracy    <       0.00148555 Ry

     iteration # 14     ecut=    80.00 Ry     beta=0.40
     Davidson diagonalization with overlap
     ethr =  2.09E-06,  avg # of iterations =  2.9

     total cpu time spent up to now is     1977.3 secs

     total energy              =    -326.41179997 Ry
     Harris-Foulkes estimate   =    -326.41192274 Ry
     estimated scf accuracy    <       0.00347702 Ry

     iteration # 15     ecut=    80.00 Ry     beta=0.40
     Davidson diagonalization with overlap
     ethr =  2.09E-06,  avg # of iterations =  2.0

     total cpu time spent up to now is     2028.8 secs

     total energy              =    -326.41205238 Ry
     Harris-Foulkes estimate   =    -326.41185397 Ry
     estimated scf accuracy    <       0.00291329 Ry

     iteration # 16     ecut=    80.00 Ry     beta=0.40
     Davidson diagonalization with overlap
     ethr =  2.09E-06,  avg # of iterations =  2.0

     total cpu time spent up to now is     2093.6 secs

     total energy              =    -326.41063714 Ry
     Harris-Foulkes estimate   =    -326.41290628 Ry
     estimated scf accuracy    <       0.01291610 Ry

     iteration # 17     ecut=    80.00 Ry     beta=0.40
     Davidson diagonalization with overlap
     ethr =  2.09E-06,  avg # of iterations =  2.0

     total cpu time spent up to now is     2160.8 secs

     total energy              =    -326.41141727 Ry
     Harris-Foulkes estimate   =    -326.41192562 Ry
     estimated scf accuracy    <       0.00379060 Ry

     iteration # 18     ecut=    80.00 Ry     beta=0.40
     Davidson diagonalization with overlap
     ethr =  2.09E-06,  avg # of iterations =  2.0

     total cpu time spent up to now is     2216.9 secs

     End of self-consistent calculation

     Number of k-points >= 100: set verbosity='high' to print the bands.

     the Fermi energy is     6.5960 ev

!    total energy              =    -326.41301664 Ry
     Harris-Foulkes estimate   =    -326.41163164 Ry
     estimated scf accuracy    <       0.00095046 Ry

     The total energy is the sum of the following terms:

     one-electron contribution =    -131.74535409 Ry
     hartree contribution      =     103.99986539 Ry
     xc contribution           =     -82.26162699 Ry
     ewald contribution        =    -216.38970407 Ry
     smearing contrib. (-TS)   =      -0.01619688 Ry

     convergence has been achieved in  18 iterations

     Forces acting on atoms (Ry/au):

     atom    1 type  3   force =    -0.01728797   -0.00998121   -0.00401486
     atom    2 type  1   force =    -0.01311195   -0.00757019   -0.01125201
     atom    3 type  1   force =    -0.01479103   -0.00411980   -0.01093496
     atom    4 type  1   force =    -0.01096337   -0.01074951   -0.01093496
     atom    5 type  1   force =    -0.01906811    0.00114972   -0.00571613
     atom    6 type  1   force =    -0.00853837   -0.01708833   -0.00571613
     atom    7 type  1   force =    -0.00671910   -0.00387928   -0.00353199
     atom    8 type  1   force =    -0.00623112   -0.00359754   -0.00960231
     atom    9 type  2   force =    -0.01769030   -0.01021350   -0.02101891
     atom   10 type  2   force =     0.00363548    0.00209895   -0.00428635
     atom   11 type  2   force =    -0.00970201    0.01399901    0.01705668
     atom   12 type  2   force =     0.00727249   -0.01540170    0.01705668
     atom   13 type  2   force =    -0.02348529    0.04076544    0.02415549
     atom   14 type  2   force =     0.02356126   -0.04072158    0.02415549
     atom   15 type  2   force =     0.11910061    0.06876277   -0.05863306
     atom   16 type  2   force =    -0.00598122   -0.00345326    0.06321734

     Total force =     0.191152     Total SCF correction =     0.015132


     entering subroutine stress ...

          total   stress  (Ry/bohr**3)                   (kbar)     P=   -0.61
   0.00005704   0.00001474   0.00001335          8.39      2.17      1.96
   0.00001474   0.00004002   0.00000771          2.17      5.89      1.13
   0.00001335   0.00000771  -0.00010947          1.96      1.13    -16.10


     number of scf cycles    =   2
     number of bfgs steps    =   1

     enthalpy old            =    -326.3824770407 Ry
     enthalpy new            =    -326.4130166450 Ry

     CASE: enthalpy_new < enthalpy_old

     new trust radius        =       0.2449575408 bohr
     new conv_thr            =       0.0003053960 Ry

     new unit-cell volume =   1194.75509 a.u.^3 (   177.04444 Ang^3 )

CELL_PARAMETERS (angstrom)
   6.368732321   0.003528811   0.003170768
  -3.181310121   5.510190763  -0.000000000
   0.002542525   0.001467928   5.043405524

ATOMIC_POSITIONS (crystal)
Mg       0.330019353   0.165010177   0.494167874
Al       0.329781415   0.664891208   0.493980569
Al       0.831158948   0.166674534   0.494019381
Al       0.831158948   0.664485414   0.494019381
Al       0.164499947   0.332522600   0.996237661
Al       0.164499947   0.831976347   0.996237661
Al       0.663764795   0.331881898   0.996561775
Al       0.665021634   0.832510317   0.995262880
N        0.330456996   0.165228997   0.913934168
N        0.340111477   0.670056239   0.879146602
N        0.834897289   0.172776220   0.884518903
N        0.834897289   0.662122068   0.884518903
N        0.160527868   0.345081802   0.378777765
N        0.160527868   0.815445066   0.378777765
N        0.692972144   0.346485572   0.367951429
N        0.665704083   0.832851541   0.391887281



     Writing output data file aln.save
     NEW-OLD atomic charge density approx. for the potential
     extrapolated charge   72.80472, renormalised to   71.00000

     total cpu time spent up to now is     2258.5 secs

     per-process dynamical memory:   480.6 Mb

     Self-consistent Calculation

     iteration #  1     ecut=    80.00 Ry     beta=0.40
     Davidson diagonalization with overlap
     ethr =  1.00E-06,  avg # of iterations = 11.6

     negative rho (up, down):  3.066E-02 0.000E+00

     total cpu time spent up to now is     2446.9 secs

     total energy              =    -326.43413424 Ry
     Harris-Foulkes estimate   =    -323.61693482 Ry
     estimated scf accuracy    <       0.33927898 Ry

     iteration #  2     ecut=    80.00 Ry     beta=0.40
     Davidson diagonalization with overlap
     ethr =  4.78E-04,  avg # of iterations =  4.0

     negative rho (up, down):  5.878E-04 0.000E+00

     total cpu time spent up to now is     2550.0 secs

     total energy              =    -322.53721259 Ry
     Harris-Foulkes estimate   =    -328.41723707 Ry
     estimated scf accuracy    <     143.21346982 Ry

     iteration #  3     ecut=    80.00 Ry     beta=0.40
     Davidson diagonalization with overlap
     ethr =  4.78E-04,  avg # of iterations =  4.0

     negative rho (up, down):  1.067E-02 0.000E+00

     total cpu time spent up to now is     2651.1 secs

     total energy              =    -326.79922357 Ry
     Harris-Foulkes estimate   =    -326.54346153 Ry
     estimated scf accuracy    <       2.62155655 Ry

     iteration #  4     ecut=    80.00 Ry     beta=0.40
     Davidson diagonalization with overlap
     ethr =  4.78E-04,  avg # of iterations =  2.0

     negative rho (up, down):  8.979E-04 0.000E+00

     total cpu time spent up to now is     2709.8 secs

     total energy              =    -325.95457246 Ry
     Harris-Foulkes estimate   =    -326.91706968 Ry
     estimated scf accuracy    <      10.16175175 Ry

     iteration #  5     ecut=    80.00 Ry     beta=0.40
     Davidson diagonalization with overlap
     ethr =  4.78E-04,  avg # of iterations =  3.0

     total cpu time spent up to now is     2786.9 secs

     total energy              =    -326.32258221 Ry
     Harris-Foulkes estimate   =    -326.54440485 Ry
     estimated scf accuracy    <       2.10695611 Ry

     iteration #  6     ecut=    80.00 Ry     beta=0.40
     Davidson diagonalization with overlap
     ethr =  4.78E-04,  avg # of iterations =  2.0

     total cpu time spent up to now is     2846.8 secs

     total energy              =    -326.43454676 Ry
     Harris-Foulkes estimate   =    -326.44334263 Ry
     estimated scf accuracy    <       0.49065503 Ry

     iteration #  7     ecut=    80.00 Ry     beta=0.40
     Davidson diagonalization with overlap
     ethr =  4.78E-04,  avg # of iterations =  2.0

     total cpu time spent up to now is     2902.1 secs

     total energy              =    -326.39211581 Ry
     Harris-Foulkes estimate   =    -326.46998700 Ry
     estimated scf accuracy    <       0.69499269 Ry

     iteration #  8     ecut=    80.00 Ry     beta=0.40
     Davidson diagonalization with overlap
     ethr =  4.78E-04,  avg # of iterations =  2.0

     total cpu time spent up to now is     2957.8 secs

     total energy              =    -326.40323795 Ry
     Harris-Foulkes estimate   =    -326.42999658 Ry
     estimated scf accuracy    <       0.21704482 Ry

     iteration #  9     ecut=    80.00 Ry     beta=0.40
     Davidson diagonalization with overlap
     ethr =  3.06E-04,  avg # of iterations =  2.0

     total cpu time spent up to now is     3012.3 secs

     total energy              =    -326.41603142 Ry
     Harris-Foulkes estimate   =    -326.41449103 Ry
     estimated scf accuracy    <       0.06224552 Ry

     iteration # 10     ecut=    80.00 Ry     beta=0.40
     Davidson diagonalization with overlap
     ethr =  8.77E-05,  avg # of iterations =  2.0

     total cpu time spent up to now is     3064.8 secs

     total energy              =    -326.41110905 Ry
     Harris-Foulkes estimate   =    -326.41777940 Ry
     estimated scf accuracy    <       0.07196709 Ry

     iteration # 11     ecut=    80.00 Ry     beta=0.40
     Davidson diagonalization with overlap
     ethr =  8.77E-05,  avg # of iterations =  2.0

     total cpu time spent up to now is     3120.0 secs

     total energy              =    -326.43192619 Ry
     Harris-Foulkes estimate   =    -326.41488218 Ry
     estimated scf accuracy    <       0.03448421 Ry

     iteration # 12     ecut=    80.00 Ry     beta=0.40
     Davidson diagonalization with overlap
     ethr =  4.86E-05,  avg # of iterations =  2.8

     total cpu time spent up to now is     3190.2 secs

     total energy              =    -326.35375652 Ry
     Harris-Foulkes estimate   =    -326.46511684 Ry
     estimated scf accuracy    <       0.55337616 Ry

     iteration # 13     ecut=    80.00 Ry     beta=0.40
     Davidson diagonalization with overlap
     ethr =  4.86E-05,  avg # of iterations =  3.0

     total cpu time spent up to now is     3263.6 secs

     total energy              =    -326.41289165 Ry
     Harris-Foulkes estimate   =    -326.41213860 Ry
     estimated scf accuracy    <       0.00891167 Ry

     iteration # 14     ecut=    80.00 Ry     beta=0.40
     Davidson diagonalization with overlap
     ethr =  1.26E-05,  avg # of iterations =  1.0

     total cpu time spent up to now is     3312.9 secs

     total energy              =    -326.41249957 Ry
     Harris-Foulkes estimate   =    -326.41294346 Ry
     estimated scf accuracy    <       0.00821967 Ry

     iteration # 15     ecut=    80.00 Ry     beta=0.40
     Davidson diagonalization with overlap
     ethr =  1.16E-05,  avg # of iterations =  2.0

     total cpu time spent up to now is     3366.4 secs

     total energy              =    -326.41449499 Ry
     Harris-Foulkes estimate   =    -326.41281348 Ry
     estimated scf accuracy    <       0.00433053 Ry

     iteration # 16     ecut=    80.00 Ry     beta=0.40
     Davidson diagonalization with overlap
     ethr =  6.10E-06,  avg # of iterations =  3.2

     total cpu time spent up to now is     3441.5 secs

     total energy              =    -326.40463836 Ry
     Harris-Foulkes estimate   =    -326.42115881 Ry
     estimated scf accuracy    <       0.08336126 Ry

     iteration # 17     ecut=    80.00 Ry     beta=0.40
     Davidson diagonalization with overlap
     ethr =  6.10E-06,  avg # of iterations =  3.0

     total cpu time spent up to now is     3516.6 secs

     total energy              =    -326.41265524 Ry
     Harris-Foulkes estimate   =    -326.41279253 Ry
     estimated scf accuracy    <       0.00369280 Ry

     iteration # 18     ecut=    80.00 Ry     beta=0.40
     Davidson diagonalization with overlap
     ethr =  5.20E-06,  avg # of iterations =  2.0

     total cpu time spent up to now is     3571.7 secs

     total energy              =    -326.41323549 Ry
     Harris-Foulkes estimate   =    -326.41286145 Ry
     estimated scf accuracy    <       0.00368759 Ry

     iteration # 19     ecut=    80.00 Ry     beta=0.40
     Davidson diagonalization with overlap
     ethr =  5.19E-06,  avg # of iterations =  2.0

     total cpu time spent up to now is     3631.0 secs

     total energy              =    -326.41188275 Ry
     Harris-Foulkes estimate   =    -326.41441450 Ry
     estimated scf accuracy    <       0.01799734 Ry

     iteration # 20     ecut=    80.00 Ry     beta=0.40
     Davidson diagonalization with overlap
     ethr =  5.19E-06,  avg # of iterations =  2.0

     total cpu time spent up to now is     3692.8 secs

     total energy              =    -326.41264518 Ry
     Harris-Foulkes estimate   =    -326.41379789 Ry
     estimated scf accuracy    <       0.01218364 Ry

     iteration # 21     ecut=    80.00 Ry     beta=0.40
     Davidson diagonalization with overlap
     ethr =  5.19E-06,  avg # of iterations =  2.0

     total cpu time spent up to now is     3748.7 secs

     total energy              =    -326.41354054 Ry
     Harris-Foulkes estimate   =    -326.41308158 Ry
     estimated scf accuracy    <       0.00545469 Ry

     iteration # 22     ecut=    80.00 Ry     beta=0.40
     Davidson diagonalization with overlap
     ethr =  5.19E-06,  avg # of iterations =  2.0

     total cpu time spent up to now is     3815.9 secs

     total energy              =    -326.40901172 Ry
     Harris-Foulkes estimate   =    -326.41621037 Ry
     estimated scf accuracy    <       0.03490836 Ry

     iteration # 23     ecut=    80.00 Ry     beta=0.40
     Davidson diagonalization with overlap
     ethr =  5.19E-06,  avg # of iterations =  2.4

     total cpu time spent up to now is     3886.1 secs

     total energy              =    -326.41311051 Ry
     Harris-Foulkes estimate   =    -326.41281666 Ry
     estimated scf accuracy    <       0.00327286 Ry

     iteration # 24     ecut=    80.00 Ry     beta=0.40
     Davidson diagonalization with overlap
     ethr =  4.61E-06,  avg # of iterations =  2.0

     total cpu time spent up to now is     3942.1 secs

     total energy              =    -326.41245664 Ry
     Harris-Foulkes estimate   =    -326.41328618 Ry
     estimated scf accuracy    <       0.00717408 Ry

     iteration # 25     ecut=    80.00 Ry     beta=0.40
     Davidson diagonalization with overlap
     ethr =  4.61E-06,  avg # of iterations =  2.0

     total cpu time spent up to now is     4006.2 secs

     total energy              =    -326.41100089 Ry
     Harris-Foulkes estimate   =    -326.41461650 Ry
     estimated scf accuracy    <       0.01982740 Ry

     iteration # 26     ecut=    80.00 Ry     beta=0.40
     Davidson diagonalization with overlap
     ethr =  4.61E-06,  avg # of iterations =  2.0

     total cpu time spent up to now is     4070.2 secs

     total energy              =    -326.41339446 Ry
     Harris-Foulkes estimate   =    -326.41292539 Ry
     estimated scf accuracy    <       0.00404828 Ry

     iteration # 27     ecut=    80.00 Ry     beta=0.40
     Davidson diagonalization with overlap
     ethr =  4.61E-06,  avg # of iterations =  2.6

     total cpu time spent up to now is     4139.9 secs

     total energy              =    -326.40831872 Ry
     Harris-Foulkes estimate   =    -326.41754078 Ry
     estimated scf accuracy    <       0.04753566 Ry

     iteration # 28     ecut=    80.00 Ry     beta=0.40
     Davidson diagonalization with overlap
     ethr =  4.61E-06,  avg # of iterations =  3.0

     total cpu time spent up to now is     4213.1 secs

     total energy              =    -326.41161759 Ry
     Harris-Foulkes estimate   =    -326.41420618 Ry
     estimated scf accuracy    <       0.01625356 Ry

     iteration # 29     ecut=    80.00 Ry     beta=0.40
     Davidson diagonalization with overlap
     ethr =  4.61E-06,  avg # of iterations =  2.0

     total cpu time spent up to now is     4272.6 secs

     total energy              =    -326.41272497 Ry
     Harris-Foulkes estimate   =    -326.41277299 Ry
     estimated scf accuracy    <       0.00283742 Ry

     iteration # 30     ecut=    80.00 Ry     beta=0.40
     Davidson diagonalization with overlap
     ethr =  4.00E-06,  avg # of iterations =  1.0

     total cpu time spent up to now is     4322.0 secs

     total energy              =    -326.41250128 Ry
     Harris-Foulkes estimate   =    -326.41273921 Ry
     estimated scf accuracy    <       0.00225101 Ry

     iteration # 31     ecut=    80.00 Ry     beta=0.40
     Davidson diagonalization with overlap
     ethr =  3.17E-06,  avg # of iterations =  2.0

     total cpu time spent up to now is     4378.0 secs

     total energy              =    -326.41252044 Ry
     Harris-Foulkes estimate   =    -326.41264278 Ry
     estimated scf accuracy    <       0.00128370 Ry

     iteration # 32     ecut=    80.00 Ry     beta=0.40
     Davidson diagonalization with overlap
     ethr =  1.81E-06,  avg # of iterations =  2.0

     total cpu time spent up to now is     4434.1 secs

     total energy              =    -326.41293566 Ry
     Harris-Foulkes estimate   =    -326.41259694 Ry
     estimated scf accuracy    <       0.00075442 Ry

     iteration # 33     ecut=    80.00 Ry     beta=0.40
     Davidson diagonalization with overlap
     ethr =  1.06E-06,  avg # of iterations =  3.0

     total cpu time spent up to now is     4507.7 secs

     total energy              =    -326.41077750 Ry
     Harris-Foulkes estimate   =    -326.41430292 Ry
     estimated scf accuracy    <       0.01674247 Ry

     iteration # 34     ecut=    80.00 Ry     beta=0.40
     Davidson diagonalization with overlap
     ethr =  1.06E-06,  avg # of iterations =  3.0

     total cpu time spent up to now is     4583.2 secs

     total energy              =    -326.41254946 Ry
     Harris-Foulkes estimate   =    -326.41253534 Ry
     estimated scf accuracy    <       0.00032710 Ry

     iteration # 35     ecut=    80.00 Ry     beta=0.40
     Davidson diagonalization with overlap
     ethr =  4.61E-07,  avg # of iterations =  2.0

     total cpu time spent up to now is     4640.6 secs

     total energy              =    -326.41254913 Ry
     Harris-Foulkes estimate   =    -326.41262405 Ry
     estimated scf accuracy    <       0.00099244 Ry

     iteration # 36     ecut=    80.00 Ry     beta=0.40
     Davidson diagonalization with overlap
     ethr =  4.61E-07,  avg # of iterations =  2.0

     total cpu time spent up to now is     4701.2 secs

     total energy              =    -326.41244992 Ry
     Harris-Foulkes estimate   =    -326.41265934 Ry
     estimated scf accuracy    <       0.00126894 Ry

     iteration # 37     ecut=    80.00 Ry     beta=0.40
     Davidson diagonalization with overlap
     ethr =  4.61E-07,  avg # of iterations =  2.0

     total cpu time spent up to now is     4759.2 secs

     End of self-consistent calculation

     Number of k-points >= 100: set verbosity='high' to print the bands.

     the Fermi energy is     6.3915 ev

!    total energy              =    -326.41274134 Ry
     Harris-Foulkes estimate   =    -326.41254714 Ry
     estimated scf accuracy    <       0.00018966 Ry

     The total energy is the sum of the following terms:

     one-electron contribution =    -130.32696616 Ry
     hartree contribution      =     102.39400041 Ry
     xc contribution           =     -82.02624270 Ry
     ewald contribution        =    -216.43699176 Ry
     smearing contrib. (-TS)   =      -0.01654115 Ry

     convergence has been achieved in  37 iterations

     Forces acting on atoms (Ry/au):

     atom    1 type  3   force =     0.01005743    0.00580666   -0.00643797
     atom    2 type  1   force =     0.01182921    0.00682960    0.01200259
     atom    3 type  1   force =     0.01258249    0.00623869    0.00878656
     atom    4 type  1   force =     0.01169411    0.00777742    0.00878656
     atom    5 type  1   force =    -0.01033484    0.02076493    0.00720985
     atom    6 type  1   force =     0.01281554   -0.01933270    0.00720985
     atom    7 type  1   force =     0.01338654    0.00772872   -0.00246410
     atom    8 type  1   force =     0.01468705    0.00847957    0.00117495
     atom    9 type  2   force =    -0.00431908   -0.00249362   -0.04248298
     atom   10 type  2   force =    -0.01345120   -0.00776605    0.02716303
     atom   11 type  2   force =     0.00438371   -0.01981512   -0.00104409
     atom   12 type  2   force =    -0.01496854    0.01370397   -0.00104409
     atom   13 type  2   force =    -0.00615903   -0.00457440   -0.00420638
     atom   14 type  2   force =    -0.00704106   -0.00304668   -0.00420638
     atom   15 type  2   force =    -0.03306894   -0.01909236    0.03466375
     atom   16 type  2   force =    -0.00209339   -0.00120862   -0.04511114

     Total force =     0.106104     Total SCF correction =     0.012954
     SCF correction compared to forces is large: reduce conv_thr to get better values


     entering subroutine stress ...

          total   stress  (Ry/bohr**3)                   (kbar)     P=  -41.61
  -0.00026578  -0.00004370   0.00004522        -39.10     -6.43      6.65
  -0.00004370  -0.00021532   0.00002611         -6.43    -31.67      3.84
   0.00004522   0.00002611  -0.00036758          6.65      3.84    -54.07


     number of scf cycles    =   3
     number of bfgs steps    =   2

     enthalpy old            =    -326.4130166450 Ry
     enthalpy new            =    -326.4127413447 Ry

     CASE: enthalpy_new > enthalpy_old

     new trust radius        =       0.1231361111 bohr
     new conv_thr            =       0.0003053960 Ry

     new unit-cell volume =   1179.43769 a.u.^3 (   174.77463 Ang^3 )

CELL_PARAMETERS (angstrom)
   6.332401448   0.001901930   0.001703260
  -3.164553605   5.481167626  -0.000000000
   0.001365595   0.000788427   5.034561063

ATOMIC_POSITIONS (crystal)
Mg       0.331476585   0.165738792   0.495525987
Al       0.331147444   0.665574222   0.495631111
Al       0.832171885   0.166801843   0.495649668
Al       0.832171885   0.665371041   0.495649668
Al       0.165544537   0.332689898   0.997133900
Al       0.165544537   0.832853639   0.997133900
Al       0.664735865   0.332367433   0.997307164
Al       0.665659718   0.832829359   0.996535223
N        0.331819875   0.165910437   0.906388576
N        0.338281583   0.669141291   0.879743195
N        0.834549758   0.170805396   0.883047937
N        0.834549758   0.663745361   0.883047937
N        0.162065007   0.340858152   0.378501208
N        0.162065007   0.821205854   0.378501208
N        0.682055827   0.341027414   0.373202547
N        0.666160728   0.833079864   0.387000768



     Writing output data file aln.save
     NEW-OLD atomic charge density approx. for the potential
     extrapolated charge   70.07813, renormalised to   71.00000

     total cpu time spent up to now is     4800.9 secs

     per-process dynamical memory:   806.5 Mb

     Self-consistent Calculation

     iteration #  1     ecut=    80.00 Ry     beta=0.40
     Davidson diagonalization with overlap
     c_bands:  1 eigenvalues not converged
     c_bands:  1 eigenvalues not converged
     c_bands:  1 eigenvalues not converged
     c_bands:  1 eigenvalues not converged
     c_bands:  1 eigenvalues not converged
     c_bands:  1 eigenvalues not converged
     ethr =  1.00E-06,  avg # of iterations = 10.9

     negative rho (up, down):  9.527E-04 0.000E+00

     total cpu time spent up to now is     4960.1 secs

     total energy              =    -326.41162595 Ry
     Harris-Foulkes estimate   =    -327.90374335 Ry
     estimated scf accuracy    <       0.08204772 Ry

     iteration #  2     ecut=    80.00 Ry     beta=0.40
     Davidson diagonalization with overlap
     ethr =  1.16E-04,  avg # of iterations =  3.0

     total cpu time spent up to now is     5044.2 secs

     total energy              =    -326.41481122 Ry
     Harris-Foulkes estimate   =    -326.62789621 Ry
     estimated scf accuracy    <       2.40908913 Ry

     iteration #  3     ecut=    80.00 Ry     beta=0.40
     Davidson diagonalization with overlap
     ethr =  1.16E-04,  avg # of iterations =  2.9

     total cpu time spent up to now is     5113.9 secs

     total energy              =    -326.39449156 Ry
     Harris-Foulkes estimate   =    -326.48077896 Ry
     estimated scf accuracy    <       0.53151940 Ry

     iteration #  4     ecut=    80.00 Ry     beta=0.40
     Davidson diagonalization with overlap
     ethr =  1.16E-04,  avg # of iterations =  2.1

     total cpu time spent up to now is     5181.5 secs

     total energy              =    -326.41359411 Ry
     Harris-Foulkes estimate   =    -326.44706228 Ry
     estimated scf accuracy    <       0.27582939 Ry

     iteration #  5     ecut=    80.00 Ry     beta=0.40
     Davidson diagonalization with overlap
     ethr =  1.16E-04,  avg # of iterations =  2.0

     total cpu time spent up to now is     5237.3 secs

     total energy              =    -326.41698127 Ry
     Harris-Foulkes estimate   =    -326.42655265 Ry
     estimated scf accuracy    <       0.05731180 Ry

     iteration #  6     ecut=    80.00 Ry     beta=0.40
     Davidson diagonalization with overlap
     ethr =  8.07E-05,  avg # of iterations =  2.0

     total cpu time spent up to now is     5292.5 secs

     total energy              =    -326.41879650 Ry
     Harris-Foulkes estimate   =    -326.42115043 Ry
     estimated scf accuracy    <       0.01321589 Ry

     iteration #  7     ecut=    80.00 Ry     beta=0.40
     Davidson diagonalization with overlap
     ethr =  1.86E-05,  avg # of iterations =  2.0

     total cpu time spent up to now is     5348.2 secs

     total energy              =    -326.42063893 Ry
     Harris-Foulkes estimate   =    -326.42010697 Ry
     estimated scf accuracy    <       0.00796215 Ry

     iteration #  8     ecut=    80.00 Ry     beta=0.40
     Davidson diagonalization with overlap
     ethr =  1.12E-05,  avg # of iterations =  1.0

     total cpu time spent up to now is     5397.6 secs

     total energy              =    -326.41818905 Ry
     Harris-Foulkes estimate   =    -326.42072589 Ry
     estimated scf accuracy    <       0.01132754 Ry

     iteration #  9     ecut=    80.00 Ry     beta=0.40
     Davidson diagonalization with overlap
     ethr =  1.12E-05,  avg # of iterations =  2.0

     total cpu time spent up to now is     5453.5 secs

     total energy              =    -326.41938628 Ry
     Harris-Foulkes estimate   =    -326.41942714 Ry
     estimated scf accuracy    <       0.00200319 Ry

     iteration # 10     ecut=    80.00 Ry     beta=0.40
     Davidson diagonalization with overlap
     ethr =  2.82E-06,  avg # of iterations =  2.2

     total cpu time spent up to now is     5510.3 secs

     total energy              =    -326.41919660 Ry
     Harris-Foulkes estimate   =    -326.41968384 Ry
     estimated scf accuracy    <       0.00403963 Ry

     iteration # 11     ecut=    80.00 Ry     beta=0.40
     Davidson diagonalization with overlap
     ethr =  2.82E-06,  avg # of iterations =  2.0

     total cpu time spent up to now is     5566.2 secs

     total energy              =    -326.41906815 Ry
     Harris-Foulkes estimate   =    -326.41945872 Ry
     estimated scf accuracy    <       0.00169356 Ry

     iteration # 12     ecut=    80.00 Ry     beta=0.40
     Davidson diagonalization with overlap
     ethr =  2.39E-06,  avg # of iterations =  2.0

     total cpu time spent up to now is     5622.1 secs

     End of self-consistent calculation

     Number of k-points >= 100: set verbosity='high' to print the bands.

     the Fermi energy is     6.4855 ev

!    total energy              =    -326.41934536 Ry
     Harris-Foulkes estimate   =    -326.41928481 Ry
     estimated scf accuracy    <       0.00003988 Ry

     The total energy is the sum of the following terms:

     one-electron contribution =    -130.87125085 Ry
     hartree contribution      =     103.10612855 Ry
     xc contribution           =     -82.14035806 Ry
     ewald contribution        =    -216.49742800 Ry
     smearing contrib. (-TS)   =      -0.01643701 Ry

     convergence has been achieved in  12 iterations

     Forces acting on atoms (Ry/au):

     atom    1 type  3   force =     0.00882552    0.00509542    0.00341739
     atom    2 type  1   force =     0.00562504    0.00324762    0.00913720
     atom    3 type  1   force =     0.00631585    0.00511303    0.00839516
     atom    4 type  1   force =     0.00758594    0.00291318    0.00839516
     atom    5 type  1   force =    -0.00766738    0.01522604    0.01009460
     atom    6 type  1   force =     0.00935245   -0.01425317    0.01009460
     atom    7 type  1   force =     0.01053492    0.00608234    0.00579793
     atom    8 type  1   force =     0.01134119    0.00654784    0.00560531
     atom    9 type  2   force =    -0.01081738   -0.00624542   -0.01211362
     atom   10 type  2   force =    -0.01343797   -0.00775841   -0.00616079
     atom   11 type  2   force =     0.00336584   -0.02467943   -0.01140374
     atom   12 type  2   force =    -0.01969009    0.01525462   -0.01140374
     atom   13 type  2   force =    -0.03276641    0.01179689   -0.00153036
     atom   14 type  2   force =    -0.00616680   -0.03427499   -0.00153036
     atom   15 type  2   force =     0.01252921    0.00723375    0.01329181
     atom   16 type  2   force =     0.01507006    0.00870070   -0.03008655

     Total force =     0.088264     Total SCF correction =     0.002887


     entering subroutine stress ...

          total   stress  (Ry/bohr**3)                   (kbar)     P=  -23.48
  -0.00012708  -0.00001899   0.00002930        -18.69     -2.79      4.31
  -0.00001899  -0.00010515   0.00001692         -2.79    -15.47      2.49
   0.00002930   0.00001692  -0.00024669          4.31      2.49    -36.29


     number of scf cycles    =   4
     number of bfgs steps    =   2

     enthalpy old            =    -326.4130166450 Ry
     enthalpy new            =    -326.4193453628 Ry

     CASE: enthalpy_new < enthalpy_old

     new trust radius        =       0.0477563279 bohr
     new conv_thr            =       0.0000632872 Ry

     new unit-cell volume =   1170.35429 a.u.^3 (   173.42861 Ang^3 )

CELL_PARAMETERS (angstrom)
   6.323207891  -0.000566392   0.006383265
  -3.162094455   5.476908254  -0.000000000
   0.005132227   0.002963093   5.008075626

ATOMIC_POSITIONS (crystal)
Mg       0.332102191   0.166051596   0.495508151
Al       0.331435344   0.665718172   0.496135154
Al       0.832698532   0.167258093   0.496084010
Al       0.832698532   0.665441439   0.496084010
Al       0.165413344   0.334048833   0.997916938
Al       0.165413344   0.831363511   0.997916938
Al       0.665627089   0.332813045   0.997694385
Al       0.666727265   0.833363132   0.996785080
N        0.330371137   0.165186068   0.907374281
N        0.337333436   0.668667218   0.878983304
N        0.833778474   0.169006444   0.882241318
N        0.833778474   0.664773029   0.882241318
N        0.159554716   0.342947821   0.378313008
N        0.159554716   0.816605894   0.378313008
N        0.685837984   0.342918492   0.373340240
N        0.667675423   0.833837211   0.385068857



     Writing output data file aln.save
     NEW-OLD atomic charge density approx. for the potential
     extrapolated charge   70.44908, renormalised to   71.00000

     total cpu time spent up to now is     5663.7 secs

     per-process dynamical memory:   922.4 Mb

     Self-consistent Calculation

     iteration #  1     ecut=    80.00 Ry     beta=0.40
     Davidson diagonalization with overlap
     ethr =  1.00E-06,  avg # of iterations =  5.6

     total cpu time spent up to now is     5800.5 secs

     total energy              =    -326.42451103 Ry
     Harris-Foulkes estimate   =    -327.29627578 Ry
     estimated scf accuracy    <       0.02096020 Ry

     iteration #  2     ecut=    80.00 Ry     beta=0.40
     Davidson diagonalization with overlap
     ethr =  2.95E-05,  avg # of iterations =  3.0

     total cpu time spent up to now is     5883.4 secs

     total energy              =    -326.42383034 Ry
     Harris-Foulkes estimate   =    -326.48401748 Ry
     estimated scf accuracy    <       0.57464648 Ry

     iteration #  3     ecut=    80.00 Ry     beta=0.40
     Davidson diagonalization with overlap
     ethr =  2.95E-05,  avg # of iterations =  2.7

     total cpu time spent up to now is     5953.2 secs

     total energy              =    -326.41612120 Ry
     Harris-Foulkes estimate   =    -326.44199268 Ry
     estimated scf accuracy    <       0.12966100 Ry

     iteration #  4     ecut=    80.00 Ry     beta=0.40
     Davidson diagonalization with overlap
     ethr =  2.95E-05,  avg # of iterations =  2.1

     total cpu time spent up to now is     6019.6 secs

     total energy              =    -326.42720057 Ry
     Harris-Foulkes estimate   =    -326.42870261 Ry
     estimated scf accuracy    <       0.02598235 Ry

     iteration #  5     ecut=    80.00 Ry     beta=0.40
     Davidson diagonalization with overlap
     ethr =  2.95E-05,  avg # of iterations =  2.0

     total cpu time spent up to now is     6072.4 secs

     total energy              =    -326.42554625 Ry
     Harris-Foulkes estimate   =    -326.42771092 Ry
     estimated scf accuracy    <       0.01180750 Ry

     iteration #  6     ecut=    80.00 Ry     beta=0.40
     Davidson diagonalization with overlap
     ethr =  1.66E-05,  avg # of iterations =  2.0

     total cpu time spent up to now is     6128.6 secs

     total energy              =    -326.42560641 Ry
     Harris-Foulkes estimate   =    -326.42650603 Ry
     estimated scf accuracy    <       0.00325068 Ry

     iteration #  7     ecut=    80.00 Ry     beta=0.40
     Davidson diagonalization with overlap
     ethr =  4.58E-06,  avg # of iterations =  2.0

     total cpu time spent up to now is     6184.6 secs

     total energy              =    -326.42612078 Ry
     Harris-Foulkes estimate   =    -326.42600267 Ry
     estimated scf accuracy    <       0.00212488 Ry

     iteration #  8     ecut=    80.00 Ry     beta=0.40
     Davidson diagonalization with overlap
     ethr =  2.99E-06,  avg # of iterations =  1.0

     total cpu time spent up to now is     6234.1 secs

     total energy              =    -326.42542987 Ry
     Harris-Foulkes estimate   =    -326.42614569 Ry
     estimated scf accuracy    <       0.00302304 Ry

     iteration #  9     ecut=    80.00 Ry     beta=0.40
     Davidson diagonalization with overlap
     ethr =  2.99E-06,  avg # of iterations =  2.0

     total cpu time spent up to now is     6291.3 secs

     total energy              =    -326.42583073 Ry
     Harris-Foulkes estimate   =    -326.42580022 Ry
     estimated scf accuracy    <       0.00052455 Ry

     iteration # 10     ecut=    80.00 Ry     beta=0.40
     Davidson diagonalization with overlap
     ethr =  7.39E-07,  avg # of iterations =  1.7

     total cpu time spent up to now is     6342.5 secs

     total energy              =    -326.42571704 Ry
     Harris-Foulkes estimate   =    -326.42584905 Ry
     estimated scf accuracy    <       0.00084090 Ry

     iteration # 11     ecut=    80.00 Ry     beta=0.40
     Davidson diagonalization with overlap
     ethr =  7.39E-07,  avg # of iterations =  2.0

     total cpu time spent up to now is     6398.7 secs

     total energy              =    -326.42574798 Ry
     Harris-Foulkes estimate   =    -326.42577974 Ry
     estimated scf accuracy    <       0.00016751 Ry

     iteration # 12     ecut=    80.00 Ry     beta=0.40
     Davidson diagonalization with overlap
     ethr =  2.36E-07,  avg # of iterations =  2.0

     total cpu time spent up to now is     6455.0 secs

     total energy              =    -326.42582401 Ry
     Harris-Foulkes estimate   =    -326.42577013 Ry
     estimated scf accuracy    <       0.00007943 Ry

     iteration # 13     ecut=    80.00 Ry     beta=0.40
     Davidson diagonalization with overlap
     ethr =  1.12E-07,  avg # of iterations =  3.1

     total cpu time spent up to now is     6533.8 secs

     total energy              =    -326.42551699 Ry
     Harris-Foulkes estimate   =    -326.42600987 Ry
     estimated scf accuracy    <       0.00233285 Ry

     iteration # 14     ecut=    80.00 Ry     beta=0.40
     Davidson diagonalization with overlap
     ethr =  1.12E-07,  avg # of iterations =  3.0

     total cpu time spent up to now is     6611.8 secs

     End of self-consistent calculation

     Number of k-points >= 100: set verbosity='high' to print the bands.

     the Fermi energy is     6.5736 ev

!    total energy              =    -326.42578097 Ry
     Harris-Foulkes estimate   =    -326.42576181 Ry
     estimated scf accuracy    <       0.00001104 Ry

     The total energy is the sum of the following terms:

     one-electron contribution =    -128.97598905 Ry
     hartree contribution      =     102.35520204 Ry
     xc contribution           =     -82.22787251 Ry
     ewald contribution        =    -217.56062671 Ry
     smearing contrib. (-TS)   =      -0.01649476 Ry

     convergence has been achieved in  14 iterations

     Forces acting on atoms (Ry/au):

     atom    1 type  3   force =     0.00627575    0.00362331   -0.00085881
     atom    2 type  1   force =     0.01141506    0.00659049    0.00938395
     atom    3 type  1   force =     0.00663165    0.00106117    0.01016019
     atom    4 type  1   force =     0.00423482    0.00521259    0.01016019
     atom    5 type  1   force =    -0.00570304    0.01062691    0.00748640
     atom    6 type  1   force =     0.00635165   -0.01025243    0.00748640
     atom    7 type  1   force =     0.00922319    0.00532501    0.00297408
     atom    8 type  1   force =     0.00773134    0.00446369    0.00419533
     atom    9 type  2   force =     0.00436683    0.00252119    0.00337867
     atom   10 type  2   force =    -0.01001918   -0.00578458    0.00268861
     atom   11 type  2   force =     0.00020629   -0.01683903   -0.01054320
     atom   12 type  2   force =    -0.01447989    0.00859817   -0.01054320
     atom   13 type  2   force =    -0.02056459    0.00075887   -0.01307053
     atom   14 type  2   force =    -0.00962510   -0.01818889   -0.01307053
     atom   15 type  2   force =     0.00396821    0.00229104    0.00186908
     atom   16 type  2   force =    -0.00001300   -0.00000751   -0.01169665

     Total force =     0.059596     Total SCF correction =     0.001313


     entering subroutine stress ...

          total   stress  (Ry/bohr**3)                   (kbar)     P=   -8.36
  -0.00006219  -0.00001874   0.00000878         -9.15     -2.76      1.29
  -0.00001874  -0.00004056   0.00000507         -2.76     -5.97      0.75
   0.00000878   0.00000507  -0.00006780          1.29      0.75     -9.97


     number of scf cycles    =   5
     number of bfgs steps    =   3

     enthalpy old            =    -326.4193453628 Ry
     enthalpy new            =    -326.4257809742 Ry

     CASE: enthalpy_new < enthalpy_old

     new trust radius        =       0.0715617718 bohr
     new conv_thr            =       0.0000643561 Ry

     new unit-cell volume =   1161.39020 a.u.^3 (   172.10027 Ang^3 )

CELL_PARAMETERS (angstrom)
   6.311002781  -0.006204821   0.011061938
  -3.160874924   5.474795964  -0.000000000
   0.008907210   0.005142580   4.983834894

ATOMIC_POSITIONS (crystal)
Mg       0.333127088   0.166564044   0.495007777
Al       0.333453503   0.666727251   0.497638982
Al       0.833657040   0.167548594   0.497715965
Al       0.833657040   0.666109446   0.497715965
Al       0.165074088   0.336393587   0.999371769
Al       0.165074088   0.828679500   0.999371769
Al       0.667558597   0.333778798   0.998205632
Al       0.668494123   0.834246561   0.997309247
N        0.330280283   0.165140641   0.909830077
N        0.335377860   0.667689430   0.879050484
N        0.832103382   0.165921811   0.880422857
N        0.832103382   0.666182570   0.880422857
N        0.155227628   0.345089748   0.376036597
N        0.155227628   0.810136880   0.376036597
N        0.691528648   0.345763824   0.372074223
N        0.668055625   0.834027313   0.383789202



     Writing output data file aln.save
     NEW-OLD atomic charge density approx. for the potential
     extrapolated charge   70.45212, renormalised to   71.00000

     total cpu time spent up to now is     6653.9 secs

     per-process dynamical memory:  1040.9 Mb

     Self-consistent Calculation

     iteration #  1     ecut=    80.00 Ry     beta=0.40
     Davidson diagonalization with overlap
     c_bands:  1 eigenvalues not converged
     c_bands:  1 eigenvalues not converged
     c_bands:  1 eigenvalues not converged
     c_bands:  1 eigenvalues not converged
     c_bands:  1 eigenvalues not converged
     c_bands:  1 eigenvalues not converged
     c_bands:  1 eigenvalues not converged
     c_bands:  1 eigenvalues not converged
     ethr =  1.00E-06,  avg # of iterations =  9.0

     total cpu time spent up to now is     6802.3 secs

     total energy              =    -326.41895883 Ry
     Harris-Foulkes estimate   =    -327.27694333 Ry
     estimated scf accuracy    <       0.01496381 Ry

     iteration #  2     ecut=    80.00 Ry     beta=0.40
     Davidson diagonalization with overlap
     ethr =  2.11E-05,  avg # of iterations =  3.0

     total cpu time spent up to now is     6882.5 secs

     total energy              =    -326.45278483 Ry
     Harris-Foulkes estimate   =    -326.44299716 Ry
     estimated scf accuracy    <       0.12125202 Ry

     iteration #  3     ecut=    80.00 Ry     beta=0.40
     Davidson diagonalization with overlap
     ethr =  2.11E-05,  avg # of iterations =  2.0

     total cpu time spent up to now is     6939.2 secs

     total energy              =    -326.40425382 Ry
     Harris-Foulkes estimate   =    -326.45565178 Ry
     estimated scf accuracy    <       0.25318345 Ry

     iteration #  4     ecut=    80.00 Ry     beta=0.40
     Davidson diagonalization with overlap
     ethr =  2.11E-05,  avg # of iterations =  3.0

     total cpu time spent up to now is     7013.3 secs

     total energy              =    -326.42929547 Ry
     Harris-Foulkes estimate   =    -326.42894498 Ry
     estimated scf accuracy    <       0.00699050 Ry

     iteration #  5     ecut=    80.00 Ry     beta=0.40
     Davidson diagonalization with overlap
     ethr =  9.85E-06,  avg # of iterations =  2.0

     total cpu time spent up to now is     7069.4 secs

     total energy              =    -326.42768866 Ry
     Harris-Foulkes estimate   =    -326.43020000 Ry
     estimated scf accuracy    <       0.01870020 Ry

     iteration #  6     ecut=    80.00 Ry     beta=0.40
     Davidson diagonalization with overlap
     ethr =  9.85E-06,  avg # of iterations =  2.0

     total cpu time spent up to now is     7125.4 secs

     total energy              =    -326.42726903 Ry
     Harris-Foulkes estimate   =    -326.42869559 Ry
     estimated scf accuracy    <       0.00384813 Ry

     iteration #  7     ecut=    80.00 Ry     beta=0.40
     Davidson diagonalization with overlap
     ethr =  5.42E-06,  avg # of iterations =  2.0

     total cpu time spent up to now is     7194.5 secs

     total energy              =    -326.42800174 Ry
     Harris-Foulkes estimate   =    -326.42797260 Ry
     estimated scf accuracy    <       0.00096725 Ry

     iteration #  8     ecut=    80.00 Ry     beta=0.40
     Davidson diagonalization with overlap
     ethr =  1.36E-06,  avg # of iterations =  2.0

     total cpu time spent up to now is     7251.1 secs

     total energy              =    -326.42780552 Ry
     Harris-Foulkes estimate   =    -326.42818935 Ry
     estimated scf accuracy    <       0.00269539 Ry

     iteration #  9     ecut=    80.00 Ry     beta=0.40
     Davidson diagonalization with overlap
     ethr =  1.36E-06,  avg # of iterations =  2.0

     total cpu time spent up to now is     7307.3 secs

     total energy              =    -326.42787208 Ry
     Harris-Foulkes estimate   =    -326.42797619 Ry
     estimated scf accuracy    <       0.00057582 Ry

     iteration # 10     ecut=    80.00 Ry     beta=0.40
     Davidson diagonalization with overlap
     ethr =  8.11E-07,  avg # of iterations =  2.0

     total cpu time spent up to now is     7363.3 secs

     End of self-consistent calculation

     Number of k-points >= 100: set verbosity='high' to print the bands.

     the Fermi energy is     6.6763 ev

!    total energy              =    -326.42796949 Ry
     Harris-Foulkes estimate   =    -326.42792073 Ry
     estimated scf accuracy    <       0.00006131 Ry

     The total energy is the sum of the following terms:

     one-electron contribution =    -126.59506688 Ry
     hartree contribution      =     101.35825452 Ry
     xc contribution           =     -82.32697931 Ry
     ewald contribution        =    -218.84772498 Ry
     smearing contrib. (-TS)   =      -0.01645285 Ry

     convergence has been achieved in  10 iterations

     Forces acting on atoms (Ry/au):

     atom    1 type  3   force =    -0.00075830   -0.00043780   -0.01115220
     atom    2 type  1   force =     0.00265539    0.00153309   -0.00067012
     atom    3 type  1   force =    -0.00259026   -0.00804412    0.00117601
     atom    4 type  1   force =    -0.00826154    0.00177883    0.00117601
     atom    5 type  1   force =    -0.00553797   -0.00320242   -0.00731579
     atom    6 type  1   force =    -0.00554236   -0.00319481   -0.00731579
     atom    7 type  1   force =     0.00230500    0.00133080   -0.00947725
     atom    8 type  1   force =    -0.00524728   -0.00302952   -0.00361101
     atom    9 type  2   force =     0.00852357    0.00492109    0.01487246
     atom   10 type  2   force =     0.00700069    0.00404185    0.01042000
     atom   11 type  2   force =     0.00475058   -0.00433226   -0.00245273
     atom   12 type  2   force =    -0.00137656    0.00628025   -0.00245273
     atom   13 type  2   force =     0.00248196    0.00434836   -0.00151609
     atom   14 type  2   force =     0.00500677   -0.00002474   -0.00151609
     atom   15 type  2   force =     0.00299424    0.00172872    0.03323442
     atom   16 type  2   force =    -0.00640394   -0.00369732   -0.01339910

     Total force =     0.051071     Total SCF correction =     0.006368
     SCF correction compared to forces is large: reduce conv_thr to get better values


     entering subroutine stress ...

          total   stress  (Ry/bohr**3)                   (kbar)     P=   10.72
   0.00002396   0.00000448  -0.00002672          3.52      0.66     -3.93
   0.00000448   0.00001879  -0.00001543          0.66      2.76     -2.27
  -0.00002672  -0.00001543   0.00017595         -3.93     -2.27     25.88


     number of scf cycles    =   6
     number of bfgs steps    =   4

     enthalpy old            =    -326.4257809742 Ry
     enthalpy new            =    -326.4279694885 Ry

     CASE: enthalpy_new < enthalpy_old

     new trust radius        =       0.0345586135 bohr
     new conv_thr            =       0.0000218851 Ry

     new unit-cell volume =   1163.82406 a.u.^3 (   172.46093 Ang^3 )

CELL_PARAMETERS (angstrom)
   6.309913793  -0.006742455   0.008599294
  -3.160796034   5.474659323  -0.000000000
   0.006935054   0.004003955   4.995503933

ATOMIC_POSITIONS (crystal)
Mg       0.333196584   0.166598792   0.493893034
Al       0.334094529   0.667047765   0.497901236
Al       0.833251465   0.166890764   0.498174834
Al       0.833251465   0.666361701   0.498174834
Al       0.164342650   0.336691245   0.999019474
Al       0.164342650   0.827650405   0.999019474
Al       0.668228007   0.334113503   0.997447079
Al       0.668353271   0.834176136   0.997069635
N        0.330937623   0.165469311   0.911108602
N        0.335565035   0.667783017   0.879998552
N        0.831852355   0.164806572   0.879853816
N        0.831852355   0.667046783   0.879853816
N        0.154673127   0.346162862   0.375651312
N        0.154673127   0.808509264   0.375651312
N        0.693852592   0.346925796   0.374705171
N        0.667533165   0.833766083   0.382477820



     Writing output data file aln.save
     NEW-OLD atomic charge density approx. for the potential
     extrapolated charge   71.14845, renormalised to   71.00000

     total cpu time spent up to now is     7404.9 secs

     per-process dynamical memory:  1138.6 Mb

     Self-consistent Calculation

     iteration #  1     ecut=    80.00 Ry     beta=0.40
     Davidson diagonalization with overlap
     c_bands:  1 eigenvalues not converged
     c_bands:  1 eigenvalues not converged
     ethr =  1.00E-06,  avg # of iterations =  4.4

     negative rho (up, down):  3.092E-05 0.000E+00

     total cpu time spent up to now is     7530.8 secs

     total energy              =    -326.43468142 Ry
     Harris-Foulkes estimate   =    -326.20114054 Ry
     estimated scf accuracy    <       0.00962214 Ry

     iteration #  2     ecut=    80.00 Ry     beta=0.40
     Davidson diagonalization with overlap
     ethr =  1.36E-05,  avg # of iterations =  3.0

     total cpu time spent up to now is     7613.2 secs

     total energy              =    -326.39831122 Ry
     Harris-Foulkes estimate   =    -326.46940405 Ry
     estimated scf accuracy    <       0.44034019 Ry

     iteration #  3     ecut=    80.00 Ry     beta=0.40
     Davidson diagonalization with overlap
     ethr =  1.36E-05,  avg # of iterations =  3.0

     total cpu time spent up to now is     7690.3 secs

     total energy              =    -326.42789157 Ry
     Harris-Foulkes estimate   =    -326.42991112 Ry
     estimated scf accuracy    <       0.01747722 Ry

     iteration #  4     ecut=    80.00 Ry     beta=0.40
     Davidson diagonalization with overlap
     ethr =  1.36E-05,  avg # of iterations =  2.0

     total cpu time spent up to now is     7749.8 secs

     total energy              =    -326.42642618 Ry
     Harris-Foulkes estimate   =    -326.43059498 Ry
     estimated scf accuracy    <       0.02514650 Ry

     iteration #  5     ecut=    80.00 Ry     beta=0.40
     Davidson diagonalization with overlap
     ethr =  1.36E-05,  avg # of iterations =  2.0

     total cpu time spent up to now is     7806.3 secs

     total energy              =    -326.42800122 Ry
     Harris-Foulkes estimate   =    -326.42828612 Ry
     estimated scf accuracy    <       0.00176721 Ry

     iteration #  6     ecut=    80.00 Ry     beta=0.40
     Davidson diagonalization with overlap
     ethr =  2.49E-06,  avg # of iterations =  2.0

     total cpu time spent up to now is     7862.4 secs

     total energy              =    -326.42817472 Ry
     Harris-Foulkes estimate   =    -326.42817281 Ry
     estimated scf accuracy    <       0.00029549 Ry

     iteration #  7     ecut=    80.00 Ry     beta=0.40
     Davidson diagonalization with overlap
     ethr =  4.16E-07,  avg # of iterations =  2.0

     total cpu time spent up to now is     7923.6 secs

     total energy              =    -326.42825942 Ry
     Harris-Foulkes estimate   =    -326.42825933 Ry
     estimated scf accuracy    <       0.00079923 Ry

     iteration #  8     ecut=    80.00 Ry     beta=0.40
     Davidson diagonalization with overlap
     ethr =  4.16E-07,  avg # of iterations =  1.0

     total cpu time spent up to now is     7973.2 secs

     total energy              =    -326.42811692 Ry
     Harris-Foulkes estimate   =    -326.42826147 Ry
     estimated scf accuracy    <       0.00063696 Ry

     iteration #  9     ecut=    80.00 Ry     beta=0.40
     Davidson diagonalization with overlap
     ethr =  4.16E-07,  avg # of iterations =  2.0

     total cpu time spent up to now is     8032.5 secs

     total energy              =    -326.42822241 Ry
     Harris-Foulkes estimate   =    -326.42820961 Ry
     estimated scf accuracy    <       0.00013278 Ry

     iteration # 10     ecut=    80.00 Ry     beta=0.40
     Davidson diagonalization with overlap
     ethr =  1.87E-07,  avg # of iterations =  2.0

     total cpu time spent up to now is     8088.6 secs

     total energy              =    -326.42817357 Ry
     Harris-Foulkes estimate   =    -326.42823412 Ry
     estimated scf accuracy    <       0.00033504 Ry

     iteration # 11     ecut=    80.00 Ry     beta=0.40
     Davidson diagonalization with overlap
     ethr =  1.87E-07,  avg # of iterations =  2.0

     total cpu time spent up to now is     8145.4 secs

     total energy              =    -326.42820052 Ry
     Harris-Foulkes estimate   =    -326.42820339 Ry
     estimated scf accuracy    <       0.00003233 Ry

     iteration # 12     ecut=    80.00 Ry     beta=0.40
     Davidson diagonalization with overlap
     ethr =  4.55E-08,  avg # of iterations =  2.0

     total cpu time spent up to now is     8201.7 secs

     End of self-consistent calculation

     Number of k-points >= 100: set verbosity='high' to print the bands.

     the Fermi energy is     6.6784 ev

!    total energy              =    -326.42821806 Ry
     Harris-Foulkes estimate   =    -326.42820208 Ry
     estimated scf accuracy    <       0.00000981 Ry

     The total energy is the sum of the following terms:

     one-electron contribution =    -126.34642583 Ry
     hartree contribution      =     101.14106234 Ry
     xc contribution           =     -82.30153534 Ry
     ewald contribution        =    -218.90491931 Ry
     smearing contrib. (-TS)   =      -0.01639992 Ry

     convergence has been achieved in  12 iterations

     Forces acting on atoms (Ry/au):

     atom    1 type  3   force =    -0.00166317   -0.00096023   -0.00729540
     atom    2 type  1   force =     0.00164790    0.00095142    0.00347292
     atom    3 type  1   force =     0.00052331   -0.00793997    0.00306040
     atom    4 type  1   force =    -0.00661456    0.00442318    0.00306040
     atom    5 type  1   force =    -0.00146081   -0.00469672   -0.00327167
     atom    6 type  1   force =    -0.00479788    0.00108326   -0.00327167
     atom    7 type  1   force =     0.00298608    0.00172401    0.00026618
     atom    8 type  1   force =    -0.00558882   -0.00322670    0.00027660
     atom    9 type  2   force =     0.00789617    0.00455886    0.00508983
     atom   10 type  2   force =     0.00291640    0.00168379    0.00225482
     atom   11 type  2   force =     0.00047864    0.00190233    0.00029914
     atom   12 type  2   force =     0.00188679   -0.00053665    0.00029914
     atom   13 type  2   force =     0.01150649   -0.00328495    0.00074386
     atom   14 type  2   force =     0.00290839    0.01160739    0.00074386
     atom   15 type  2   force =    -0.01021535   -0.00589784    0.00292470
     atom   16 type  2   force =    -0.00240959   -0.00139118   -0.00865313

     Total force =     0.031505     Total SCF correction =     0.001021


     entering subroutine stress ...

          total   stress  (Ry/bohr**3)                   (kbar)     P=    5.21
   0.00001291   0.00000549  -0.00001735          1.90      0.81     -2.55
   0.00000549   0.00000657  -0.00001002          0.81      0.97     -1.47
  -0.00001735  -0.00001002   0.00008683         -2.55     -1.47     12.77


     number of scf cycles    =   7
     number of bfgs steps    =   5

     enthalpy old            =    -326.4279694885 Ry
     enthalpy new            =    -326.4282180640 Ry

     CASE: enthalpy_new < enthalpy_old

     new trust radius        =       0.0269343216 bohr
     new conv_thr            =       0.0000100000 Ry

     new unit-cell volume =   1167.64871 a.u.^3 (   173.02769 Ang^3 )

CELL_PARAMETERS (angstrom)
   6.309348182  -0.004939995   0.003649628
  -3.158952252   5.471465798  -0.000000000
   0.002955847   0.001706559   5.014457764

ATOMIC_POSITIONS (crystal)
Mg       0.332835621   0.166418311   0.492902927
Al       0.334245052   0.667123026   0.498253289
Al       0.832542530   0.165701532   0.498535843
Al       0.832542530   0.666841997   0.498535843
Al       0.163748755   0.335872228   0.998305740
Al       0.163748755   0.827875527   0.998305740
Al       0.668546626   0.334272813   0.997165073
Al       0.667285631   0.833642315   0.997004282
N        0.332256830   0.166128915   0.910241703
N        0.336123373   0.668062186   0.880692260
N        0.832156741   0.165037475   0.879980716
N        0.832156741   0.667120266   0.879980716
N        0.156465922   0.345483778   0.376214720
N        0.156465922   0.810981145   0.376214720
N        0.691988276   0.345993638   0.376413428
N        0.666890694   0.833444847   0.381252998



     Writing output data file aln.save
     NEW-OLD atomic charge density approx. for the potential
     extrapolated charge   71.23251, renormalised to   71.00000

     total cpu time spent up to now is     8243.2 secs

     per-process dynamical memory:  1234.9 Mb

     Self-consistent Calculation

     iteration #  1     ecut=    80.00 Ry     beta=0.40
     Davidson diagonalization with overlap
     ethr =  1.00E-06,  avg # of iterations =  4.3

     total cpu time spent up to now is     8369.0 secs

     total energy              =    -326.42990841 Ry
     Harris-Foulkes estimate   =    -326.06982419 Ry
     estimated scf accuracy    <       0.00498159 Ry

     iteration #  2     ecut=    80.00 Ry     beta=0.40
     Davidson diagonalization with overlap
     ethr =  7.02E-06,  avg # of iterations =  3.0

     total cpu time spent up to now is     8453.5 secs

     total energy              =    -326.42511574 Ry
     Harris-Foulkes estimate   =    -326.44380030 Ry
     estimated scf accuracy    <       0.13841993 Ry

     iteration #  3     ecut=    80.00 Ry     beta=0.40
     Davidson diagonalization with overlap
     ethr =  7.02E-06,  avg # of iterations =  3.0

     total cpu time spent up to now is     8525.0 secs

     total energy              =    -326.42733682 Ry
     Harris-Foulkes estimate   =    -326.43165716 Ry
     estimated scf accuracy    <       0.01943966 Ry

     iteration #  4     ecut=    80.00 Ry     beta=0.40
     Davidson diagonalization with overlap
[...]
     Harris-Foulkes estimate   =    -326.42989993 Ry
     estimated scf accuracy    <       0.00000681 Ry

     The total energy is the sum of the following terms:

     one-electron contribution =    -127.25558586 Ry
     hartree contribution      =     101.58254147 Ry
     xc contribution           =     -82.28264789 Ry
     ewald contribution        =    -218.45776649 Ry
     smearing contrib. (-TS)   =      -0.01644804 Ry

     convergence has been achieved in   9 iterations

     Forces acting on atoms (Ry/au):

     atom    1 type  3   force =    -0.00030051   -0.00017350    0.00201654
     atom    2 type  1   force =    -0.00008082   -0.00004666   -0.00059628
     atom    3 type  1   force =    -0.00191900    0.00050356   -0.00022210
     atom    4 type  1   force =    -0.00052340   -0.00191368   -0.00022210
     atom    5 type  1   force =    -0.00060567   -0.00024640    0.00036149
     atom    6 type  1   force =    -0.00051623   -0.00040132    0.00036149
     atom    7 type  1   force =    -0.00026967   -0.00015569   -0.00119368
     atom    8 type  1   force =    -0.00082681   -0.00047736   -0.00026684
     atom    9 type  2   force =     0.00033246    0.00019195    0.00291014
     atom   10 type  2   force =     0.00545814    0.00315126    0.00437638
     atom   11 type  2   force =     0.00600309   -0.00108777    0.00105083
     atom   12 type  2   force =     0.00205951    0.00574271    0.00105083
     atom   13 type  2   force =    -0.00156219   -0.00223380   -0.00302294
     atom   14 type  2   force =    -0.00271562   -0.00023600   -0.00302294
     atom   15 type  2   force =    -0.00205411   -0.00118594    0.00125760
     atom   16 type  2   force =    -0.00247916   -0.00143135   -0.00483840

     Total force =     0.015239     Total SCF correction =     0.001517


     entering subroutine stress ...

          total   stress  (Ry/bohr**3)                   (kbar)     P=    2.30
   0.00001061   0.00000222  -0.00000563          1.56      0.33     -0.83
   0.00000222   0.00000804  -0.00000325          0.33      1.18     -0.48
  -0.00000563  -0.00000325   0.00002835         -0.83     -0.48      4.17


     number of scf cycles    =  12
     number of bfgs steps    =  10

     enthalpy old            =    -326.4297931601 Ry
     enthalpy new            =    -326.4299067899 Ry

     CASE: enthalpy_new < enthalpy_old

     new trust radius        =       0.0085388368 bohr
     new conv_thr            =       0.0000100000 Ry

     new unit-cell volume =   1167.72575 a.u.^3 (   173.03910 Ang^3 )

CELL_PARAMETERS (angstrom)
   6.305367601  -0.002102135   0.000509324
  -3.154504302   5.463761724   0.000000000
   0.000433450   0.000250253   5.023723083

ATOMIC_POSITIONS (crystal)
Mg       0.333731734   0.166866367   0.493100428
Al       0.333987388   0.666994194   0.498917061
Al       0.833107873   0.165782111   0.499202998
Al       0.833107873   0.667326762   0.499202998
Al       0.164176483   0.335403798   0.998933479
Al       0.164176483   0.828771685   0.998933479
Al       0.670114992   0.335056996   0.999033073
Al       0.666541939   0.833270470   0.997917500
N        0.332366037   0.166183518   0.911573889
N        0.335404161   0.667702581   0.879457196
N        0.832220882   0.164738001   0.879331662
N        0.832220882   0.667483880   0.879331662
N        0.156139200   0.344108605   0.374980835
N        0.156139200   0.812029595   0.374980835
N        0.689573970   0.344786485   0.374699567
N        0.666990904   0.833494952   0.380403336



     Writing output data file aln.save
     NEW-OLD atomic charge density approx. for the potential
     extrapolated charge   71.13105, renormalised to   71.00000

     total cpu time spent up to now is    11324.3 secs

     per-process dynamical memory:  1588.4 Mb

     Self-consistent Calculation

     iteration #  1     ecut=    80.00 Ry     beta=0.40
     Davidson diagonalization with overlap
     ethr =  1.00E-06,  avg # of iterations =  4.0

     total cpu time spent up to now is    11428.3 secs

     total energy              =    -326.43045600 Ry
     Harris-Foulkes estimate   =    -326.22678462 Ry
     estimated scf accuracy    <       0.00190549 Ry

     iteration #  2     ecut=    80.00 Ry     beta=0.40
     Davidson diagonalization with overlap
     ethr =  2.68E-06,  avg # of iterations =  3.0

     total cpu time spent up to now is    11513.5 secs

     total energy              =    -326.42719497 Ry
     Harris-Foulkes estimate   =    -326.43648297 Ry
     estimated scf accuracy    <       0.06155999 Ry

     iteration #  3     ecut=    80.00 Ry     beta=0.40
     Davidson diagonalization with overlap
     ethr =  2.68E-06,  avg # of iterations =  3.0

     total cpu time spent up to now is    11589.6 secs

     total energy              =    -326.42933470 Ry
     Harris-Foulkes estimate   =    -326.43066725 Ry
     estimated scf accuracy    <       0.00603130 Ry

     iteration #  4     ecut=    80.00 Ry     beta=0.40
     Davidson diagonalization with overlap
     ethr =  2.68E-06,  avg # of iterations =  2.0

     total cpu time spent up to now is    11650.7 secs

     total energy              =    -326.42992665 Ry
     Harris-Foulkes estimate   =    -326.42991710 Ry
     estimated scf accuracy    <       0.00024040 Ry

     iteration #  5     ecut=    80.00 Ry     beta=0.40
     Davidson diagonalization with overlap
     ethr =  3.39E-07,  avg # of iterations =  2.0

     total cpu time spent up to now is    11707.1 secs

     total energy              =    -326.42992519 Ry
     Harris-Foulkes estimate   =    -326.42994922 Ry
     estimated scf accuracy    <       0.00037690 Ry

     iteration #  6     ecut=    80.00 Ry     beta=0.40
     Davidson diagonalization with overlap
     ethr =  3.39E-07,  avg # of iterations =  2.0

     total cpu time spent up to now is    11763.4 secs

     total energy              =    -326.42991015 Ry
     Harris-Foulkes estimate   =    -326.42993953 Ry
     estimated scf accuracy    <       0.00014828 Ry

     iteration #  7     ecut=    80.00 Ry     beta=0.40
     Davidson diagonalization with overlap
     ethr =  2.09E-07,  avg # of iterations =  2.0

     total cpu time spent up to now is    11815.9 secs

     total energy              =    -326.42990457 Ry
     Harris-Foulkes estimate   =    -326.42991882 Ry
     estimated scf accuracy    <       0.00005024 Ry

     iteration #  8     ecut=    80.00 Ry     beta=0.40
     Davidson diagonalization with overlap
     ethr =  7.08E-08,  avg # of iterations =  2.0

     total cpu time spent up to now is    11875.4 secs

     total energy              =    -326.42990927 Ry
     Harris-Foulkes estimate   =    -326.42991158 Ry
     estimated scf accuracy    <       0.00003151 Ry

     iteration #  9     ecut=    80.00 Ry     beta=0.40
     Davidson diagonalization with overlap
     ethr =  4.44E-08,  avg # of iterations =  2.0

     total cpu time spent up to now is    11929.2 secs

     total energy              =    -326.42990643 Ry
     Harris-Foulkes estimate   =    -326.42991039 Ry
     estimated scf accuracy    <       0.00001217 Ry

     iteration # 10     ecut=    80.00 Ry     beta=0.40
     Davidson diagonalization with overlap
     ethr =  1.71E-08,  avg # of iterations =  2.1

     total cpu time spent up to now is    11993.9 secs

     End of self-consistent calculation

     Number of k-points >= 100: set verbosity='high' to print the bands.

     the Fermi energy is     6.6352 ev

!    total energy              =    -326.42991007 Ry
     Harris-Foulkes estimate   =    -326.42990856 Ry
     estimated scf accuracy    <       0.00000134 Ry

     The total energy is the sum of the following terms:

     one-electron contribution =    -127.37451657 Ry
     hartree contribution      =     101.57598514 Ry
     xc contribution           =     -82.26089299 Ry
     ewald contribution        =    -218.35403775 Ry
     smearing contrib. (-TS)   =      -0.01644790 Ry

     convergence has been achieved in  10 iterations

     Forces acting on atoms (Ry/au):

     atom    1 type  3   force =     0.00018058    0.00010426    0.00165866
     atom    2 type  1   force =     0.00069711    0.00040248    0.00097849
     atom    3 type  1   force =     0.00016497   -0.00010251    0.00043802
     atom    4 type  1   force =    -0.00000629    0.00019412    0.00043802
     atom    5 type  1   force =     0.00075031   -0.00005076    0.00118150
     atom    6 type  1   force =     0.00033120    0.00067517    0.00118150
     atom    7 type  1   force =     0.00063291    0.00036541    0.00004388
     atom    8 type  1   force =     0.00066607    0.00038456    0.00080135
     atom    9 type  2   force =     0.00043563    0.00025151    0.00189189
     atom   10 type  2   force =    -0.00123595   -0.00071358   -0.00193181
     atom   11 type  2   force =    -0.00092824    0.00038079   -0.00168969
     atom   12 type  2   force =    -0.00013435   -0.00099428   -0.00168969
     atom   13 type  2   force =     0.00049882    0.00277300   -0.00232596
     atom   14 type  2   force =     0.00265090   -0.00095451   -0.00232596
     atom   15 type  2   force =    -0.00375093   -0.00216560    0.00070864
     atom   16 type  2   force =    -0.00095275   -0.00055007    0.00064113

     Total force =     0.008687     Total SCF correction =     0.001064
     SCF correction compared to forces is large: reduce conv_thr to get better values


     entering subroutine stress ...

          total   stress  (Ry/bohr**3)                   (kbar)     P=   -2.34
  -0.00001175   0.00000237   0.00000142         -1.73      0.35      0.21
   0.00000237  -0.00001450   0.00000082          0.35     -2.13      0.12
   0.00000142   0.00000082  -0.00002139          0.21      0.12     -3.15


     number of scf cycles    =  13
     number of bfgs steps    =  11

     enthalpy old            =    -326.4299067899 Ry
     enthalpy new            =    -326.4299100675 Ry

     CASE: enthalpy_new < enthalpy_old

     new trust radius        =       0.0039503885 bohr
     new conv_thr            =       0.0000100000 Ry

     new unit-cell volume =   1166.98553 a.u.^3 (   172.92941 Ang^3 )

CELL_PARAMETERS (angstrom)
   6.303912212  -0.001504057   0.000150466
  -3.153258658   5.461604204   0.000000000
   0.000145153   0.000083804   5.023406381

ATOMIC_POSITIONS (crystal)
Mg       0.333782286   0.166891643   0.493281656
Al       0.334009711   0.667005355   0.498985528
Al       0.833089344   0.165779804   0.499256203
Al       0.833089344   0.667310540   0.499256203
Al       0.164208748   0.335368746   0.999044532
Al       0.164208748   0.828839002   0.999044532
Al       0.670260156   0.335129578   0.999091434
Al       0.666515461   0.833257231   0.998003507
N        0.332456877   0.166228938   0.911782858
N        0.335315821   0.667658411   0.879325802
N        0.832227956   0.164733958   0.879185872
N        0.832227956   0.667494997   0.879185872
N        0.156276106   0.344285853   0.374747738
N        0.156276106   0.811989253   0.374747738
N        0.689194106   0.344596553   0.374647364
N        0.666861277   0.833430138   0.380413159



     Writing output data file aln.save
     NEW-OLD atomic charge density approx. for the potential
     extrapolated charge   70.95498, renormalised to   71.00000

     total cpu time spent up to now is    12035.8 secs

     per-process dynamical memory:  1671.2 Mb

     Self-consistent Calculation

     iteration #  1     ecut=    80.00 Ry     beta=0.40
     Davidson diagonalization with overlap
     ethr =  1.00E-06,  avg # of iterations =  3.0

     total cpu time spent up to now is    12113.5 secs

     total energy              =    -326.43009424 Ry
     Harris-Foulkes estimate   =    -326.49982364 Ry
     estimated scf accuracy    <       0.00030534 Ry

     iteration #  2     ecut=    80.00 Ry     beta=0.40
     Davidson diagonalization with overlap
     ethr =  4.30E-07,  avg # of iterations =  3.0

     total cpu time spent up to now is    12195.1 secs

     total energy              =    -326.42928700 Ry
     Harris-Foulkes estimate   =    -326.43113673 Ry
     estimated scf accuracy    <       0.01126759 Ry

     iteration #  3     ecut=    80.00 Ry     beta=0.40
     Davidson diagonalization with overlap
     ethr =  4.30E-07,  avg # of iterations =  3.0

     total cpu time spent up to now is    12271.4 secs

     total energy              =    -326.42986235 Ry
     Harris-Foulkes estimate   =    -326.43003158 Ry
     estimated scf accuracy    <       0.00078111 Ry

     iteration #  4     ecut=    80.00 Ry     beta=0.40
     Davidson diagonalization with overlap
     ethr =  4.30E-07,  avg # of iterations =  2.0

     total cpu time spent up to now is    12330.5 secs

     total energy              =    -326.42994178 Ry
     Harris-Foulkes estimate   =    -326.42994047 Ry
     estimated scf accuracy    <       0.00004707 Ry

     iteration #  5     ecut=    80.00 Ry     beta=0.40
     Davidson diagonalization with overlap
     ethr =  6.63E-08,  avg # of iterations =  2.0

     total cpu time spent up to now is    12386.4 secs

     total energy              =    -326.42994191 Ry
     Harris-Foulkes estimate   =    -326.42994614 Ry
     estimated scf accuracy    <       0.00006963 Ry

     iteration #  6     ecut=    80.00 Ry     beta=0.40
     Davidson diagonalization with overlap
     ethr =  6.63E-08,  avg # of iterations =  2.0

     total cpu time spent up to now is    12440.9 secs

     total energy              =    -326.42993791 Ry
     Harris-Foulkes estimate   =    -326.42994393 Ry
     estimated scf accuracy    <       0.00002700 Ry

     iteration #  7     ecut=    80.00 Ry     beta=0.40
     Davidson diagonalization with overlap
     ethr =  3.80E-08,  avg # of iterations =  2.0

     total cpu time spent up to now is    12496.7 secs

     End of self-consistent calculation

     Number of k-points >= 100: set verbosity='high' to print the bands.

     the Fermi energy is     6.6441 ev

!    total energy              =    -326.42993928 Ry
     Harris-Foulkes estimate   =    -326.42994014 Ry
     estimated scf accuracy    <       0.00000797 Ry

     The total energy is the sum of the following terms:

     one-electron contribution =    -127.29278512 Ry
     hartree contribution      =     101.54166171 Ry
     xc contribution           =     -82.26366385 Ry
     ewald contribution        =    -218.39870996 Ry
     smearing contrib. (-TS)   =      -0.01644205 Ry

     convergence has been achieved in   7 iterations

     Forces acting on atoms (Ry/au):

     atom    1 type  3   force =    -0.00074646   -0.00043097    0.00143811
     atom    2 type  1   force =     0.00094226    0.00054402    0.00089377
     atom    3 type  1   force =     0.00012782    0.00019041   -0.00023672
     atom    4 type  1   force =     0.00022881    0.00001549   -0.00023672
     atom    5 type  1   force =     0.00048590    0.00018111    0.00031331
     atom    6 type  1   force =     0.00039979    0.00033025    0.00031331
     atom    7 type  1   force =     0.00032969    0.00019035   -0.00018030
     atom    8 type  1   force =     0.00042795    0.00024708    0.00033414
     atom    9 type  2   force =     0.00051155    0.00029534    0.00236083
     atom   10 type  2   force =    -0.00137134   -0.00079175   -0.00257352
     atom   11 type  2   force =     0.00000922   -0.00017704   -0.00098950
     atom   12 type  2   force =    -0.00014871    0.00009651   -0.00098950
     atom   13 type  2   force =     0.00043978    0.00371495   -0.00071683
     atom   14 type  2   force =     0.00343713   -0.00147662   -0.00071683
     atom   15 type  2   force =    -0.00484989   -0.00280008    0.00187948
     atom   16 type  2   force =    -0.00022351   -0.00012904   -0.00089303

     Total force =     0.009388     Total SCF correction =     0.002956
     SCF correction compared to forces is large: reduce conv_thr to get better values


     entering subroutine stress ...

          total   stress  (Ry/bohr**3)                   (kbar)     P=   -2.87
  -0.00001749   0.00000060   0.00000215         -2.57      0.09      0.32
   0.00000060  -0.00001818   0.00000124          0.09     -2.67      0.18
   0.00000215   0.00000124  -0.00002288          0.32      0.18     -3.37


     number of scf cycles    =  14
     number of bfgs steps    =  12

     enthalpy old            =    -326.4299100675 Ry
     enthalpy new            =    -326.4299392778 Ry

     CASE: enthalpy_new < enthalpy_old


     WARNING: bfgs curvature condition failed, Theta= 0.831
     new trust radius        =       0.0059244525 bohr
     new conv_thr            =       0.0000100000 Ry

     new unit-cell volume =   1165.85613 a.u.^3 (   172.76205 Ang^3 )

CELL_PARAMETERS (angstrom)
   6.301656727  -0.000678289  -0.000344915
  -3.151415779   5.458412244   0.000000000
  -0.000252814  -0.000145962   5.022896969

ATOMIC_POSITIONS (crystal)
Mg       0.333830327   0.166915664   0.493543591
Al       0.334053524   0.667027262   0.499088606
Al       0.833062030   0.165778795   0.499322511
Al       0.833062030   0.667284235   0.499322511
Al       0.164253717   0.335321774   0.999191294
Al       0.164253717   0.828930943   0.999191294
Al       0.670464488   0.335231744   0.999170476
Al       0.666472935   0.833235968   0.998120129
N        0.332588187   0.166294593   0.912091137
N        0.335190408   0.667595704   0.879124569
N        0.832249167   0.164720680   0.878986441
N        0.832249167   0.667529485   0.878986441
N        0.156482298   0.344555919   0.374432058
N        0.156482298   0.811925379   0.374432058
N        0.688622535   0.344310768   0.374586198
N        0.666683172   0.833341086   0.380410683



     Writing output data file aln.save
     NEW-OLD atomic charge density approx. for the potential
     extrapolated charge   70.93124, renormalised to   71.00000

     total cpu time spent up to now is    12538.6 secs

     per-process dynamical memory:  1728.7 Mb

     Self-consistent Calculation

     iteration #  1     ecut=    80.00 Ry     beta=0.40
     Davidson diagonalization with overlap
     ethr =  1.00E-06,  avg # of iterations =  3.0

     total cpu time spent up to now is    12623.5 secs

     total energy              =    -326.43021544 Ry
     Harris-Foulkes estimate   =    -326.53665565 Ry
     estimated scf accuracy    <       0.00076686 Ry

     iteration #  2     ecut=    80.00 Ry     beta=0.40
     Davidson diagonalization with overlap
     ethr =  1.08E-06,  avg # of iterations =  3.0

     total cpu time spent up to now is    12705.8 secs

     total energy              =    -326.42885252 Ry
     Harris-Foulkes estimate   =    -326.43256505 Ry
     estimated scf accuracy    <       0.02468920 Ry

     iteration #  3     ecut=    80.00 Ry     beta=0.40
     Davidson diagonalization with overlap
     ethr =  1.08E-06,  avg # of iterations =  3.0

     total cpu time spent up to now is    12779.8 secs

     total energy              =    -326.42967771 Ry
     Harris-Foulkes estimate   =    -326.43022851 Ry
     estimated scf accuracy    <       0.00251221 Ry

     iteration #  4     ecut=    80.00 Ry     beta=0.40
     Davidson diagonalization with overlap
     ethr =  1.08E-06,  avg # of iterations =  2.0

     total cpu time spent up to now is    12842.9 secs

     total energy              =    -326.42994660 Ry
     Harris-Foulkes estimate   =    -326.42993639 Ry
     estimated scf accuracy    <       0.00012013 Ry

     iteration #  5     ecut=    80.00 Ry     beta=0.40
     Davidson diagonalization with overlap
     ethr =  1.69E-07,  avg # of iterations =  2.0

     total cpu time spent up to now is    12899.2 secs

     total energy              =    -326.42992766 Ry
     Harris-Foulkes estimate   =    -326.42996157 Ry
     estimated scf accuracy    <       0.00026617 Ry

     iteration #  6     ecut=    80.00 Ry     beta=0.40
     Davidson diagonalization with overlap
