
     Program PWSCF v.6.0 (svn rev. 13079) starts on 11Aug2024 at 15:14:49 

     This program is part of the open-source Quantum ESPRESSO suite
     for quantum simulation of materials; please cite
         "P. Giannozzi et al., J. Phys.:Condens. Matter 21 395502 (2009);
          URL http://www.quantum-espresso.org", 
     in publications or presentations arising from this work. More details at
     http://www.quantum-espresso.org/quote

     Parallel version (MPI), running on    48 processors
     R & G space division:  proc/nbgrp/npool/nimage =      48
     Waiting for input...
     Reading input from standard input
Warning: card WF_COLLECT=.TRUE ignored

     Current dimensions of program PWSCF are:
     Max number of different atomic species (ntypx) = 10
     Max number of k-points (npk) =  40000
     Max angular momentum in pseudopotentials (lmaxx) =  3

     Atomic positions and unit cell read from directory:
     ./tmp/aln.save/


     Subspace diagonalization in iterative solution of the eigenvalue problem:
     one sub-group per band group will be used
     ELPA distributed-memory algorithm (size of sub-group:  4*  4 procs)

     Found symmetry operation: I + (  0.5000  0.0000  0.0000)
     This is a supercell, fractional translations are disabled

     Parallelization info
     --------------------
     sticks:   dense  smooth     PW     G-vecs:    dense   smooth      PW
     Min         109      63     17                 5145     2280     333
     Max         110      64     18                 5150     2286     338
     Sum        5251    3067    847               247061   109583   16079



     bravais-lattice index     =            0
     lattice parameter (alat)  =      11.7829  a.u.
     unit-cell volume          =    1133.8434 (a.u.)^3
     number of atoms/cell      =           16
     number of atomic types    =            2
     number of electrons       =        64.00
     number of Kohn-Sham states=           64
     kinetic-energy cutoff     =      80.0000  Ry
     charge density cutoff     =     550.0000  Ry
     Exchange-correlation      = PBESOL ( 1  4 10  8 0 0)

     celldm(1)=  11.782901  celldm(2)=   0.000000  celldm(3)=   0.000000
     celldm(4)=   0.000000  celldm(5)=   0.000000  celldm(6)=   0.000000

     crystal axes: (cart. coord. in units of alat)
               a(1) = (   1.000000  -0.000000   0.000000 )  
               a(2) = (  -0.500000   0.866025   0.000000 )  
               a(3) = (   0.000000   0.000000   0.800324 )  

     reciprocal axes: (cart. coord. in units 2 pi/alat)
               b(1) = (  1.000000  0.577350 -0.000000 )  
               b(2) = (  0.000000  1.154701 -0.000000 )  
               b(3) = ( -0.000000 -0.000000  1.249494 )  


     PseudoPot. # 1 for Al read from file:
     pseudo/Al.pbesol-n-rrkjus_psl.1.0.0.UPF
     MD5 check sum: dbcefca01057e646ce9c389674ce64eb
     Pseudo is Ultrasoft + core correction, Zval =  3.0
     Generated using "atomic" code by A. Dal Corso  v.6.3
     Using radial grid of 1135 points,  6 beta functions with: 
                l(1) =   0
                l(2) =   0
                l(3) =   1
                l(4) =   1
                l(5) =   2
                l(6) =   2
     Q(r) pseudized with 0 coefficients 


     PseudoPot. # 2 for  N read from file:
     pseudo/N.pbesol-n-rrkjus_psl.1.0.0.UPF
     MD5 check sum: 006b6b9dfb5634708511e9f3c875aba4
     Pseudo is Ultrasoft + core correction, Zval =  5.0
     Generated using "atomic" code by A. Dal Corso  v.6.3MaX
     Using radial grid of 1085 points,  4 beta functions with: 
                l(1) =   0
                l(2) =   0
                l(3) =   1
                l(4) =   1
     Q(r) pseudized with 0 coefficients 


     atomic species   valence    mass     pseudopotential
        Al             3.00    26.98150     Al( 1.00)
        N              5.00    14.00670      N( 1.00)

      6 Sym. Ops. (no inversion) found



   Cartesian axes

     site n.     atom                  positions (alat units)
         1           Al  tau(   1) = (   0.2499999   0.1443381   0.3993923  )
         2           Al  tau(   2) = (  -0.0000005   0.5773506   0.3993865  )
         3           Al  tau(   3) = (   0.7499991   0.1443381   0.3993923  )
         4           Al  tau(   4) = (   0.4999995   0.5773501   0.3993923  )
         5           Al  tau(   5) = (   0.0000005   0.2886757   0.7995528  )
         6           Al  tau(   6) = (  -0.2499987   0.7216871   0.7995528  )
         7           Al  tau(   7) = (   0.5000005   0.2886748   0.7995529  )
         8           Al  tau(   8) = (   0.2499998   0.7216871   0.7995528  )
         9           N   tau(   9) = (   0.2499993   0.1443377   0.7050560  )
        10           N   tau(  10) = (  -0.0000005   0.5773506   0.7050574  )
        11           N   tau(  11) = (   0.7499997   0.1443377   0.7050560  )
        12           N   tau(  12) = (   0.4999995   0.5773508   0.7050560  )
        13           N   tau(  13) = (   0.0000005   0.2886750   0.3048921  )
        14           N   tau(  14) = (  -0.2499994   0.7216875   0.3048921  )
        15           N   tau(  15) = (   0.5000005   0.2886748   0.3048995  )
        16           N   tau(  16) = (   0.2500004   0.7216875   0.3048921  )

     number of k points=   121  gaussian smearing, width (Ry)=  0.0200

     Number of k-points >= 100: set verbosity='high' to print them.

     Dense  grid:   247061 G-vectors     FFT dimensions: (  90,  90,  72)

     Smooth grid:   109583 G-vectors     FFT dimensions: (  72,  72,  54)

     Estimated max dynamical RAM per process >       8.48Mb

     Estimated total allocated dynamical RAM >     407.14Mb

     The potential is recalculated from file :
     ./tmp/aln.save/charge-density.dat

     Starting wfc are   64 randomized atomic wfcs

     Band Structure Calculation
     Davidson diagonalization with overlap
     c_bands:  1 eigenvalues not converged
     c_bands:  1 eigenvalues not converged
     c_bands:  1 eigenvalues not converged
     c_bands:  1 eigenvalues not converged
     c_bands:  1 eigenvalues not converged
     c_bands:  1 eigenvalues not converged

     ethr =  1.56E-11,  avg # of iterations = 26.0

     total cpu time spent up to now is      344.9 secs

     End of band structure calculation

     Number of k-points >= 100: set verbosity='high' to print the bands.

     Writing output data file aln.save

     init_run     :      0.62s CPU      0.66s WALL (       1 calls)
     electrons    :    313.67s CPU    343.43s WALL (       1 calls)

     Called by init_run:
     wfcinit      :      0.00s CPU      0.00s WALL (       1 calls)
     potinit      :      0.06s CPU      0.07s WALL (       1 calls)

     Called by electrons:
     c_bands      :    313.67s CPU    343.43s WALL (       1 calls)
     v_of_rho     :      0.02s CPU      0.02s WALL (       1 calls)
     newd         :      0.06s CPU      0.08s WALL (       1 calls)

     Called by c_bands:
     init_us_2    :      0.05s CPU      0.07s WALL (     121 calls)
     cegterg      :    300.49s CPU    329.23s WALL (     201 calls)

     Called by sum_band:

     Called by *egterg:
     h_psi        :    100.12s CPU    107.85s WALL (    3470 calls)
     s_psi        :     15.72s CPU     15.78s WALL (    3470 calls)
     g_psi        :      0.13s CPU      0.13s WALL (    3148 calls)
     cdiaghg      :    110.90s CPU    124.34s WALL (    3269 calls)

     Called by h_psi:
     h_psi:pot    :     99.88s CPU    107.60s WALL (    3470 calls)
     h_psi:calbec :     23.96s CPU     26.36s WALL (    3470 calls)
     vloc_psi     :     59.31s CPU     64.57s WALL (    3470 calls)
     add_vuspsi   :     16.58s CPU     16.65s WALL (    3470 calls)

     General routines
     calbec       :     23.95s CPU     26.35s WALL (    3470 calls)
     fft          :      0.03s CPU      0.03s WALL (      13 calls)
     ffts         :      0.01s CPU      0.01s WALL (       1 calls)
     fftw         :     56.24s CPU     61.32s WALL (  181382 calls)
     interpolate  :      0.01s CPU      0.01s WALL (       1 calls)
     davcio       :      0.07s CPU      0.10s WALL (     121 calls)

     Parallel routines
     fft_scatter  :     27.93s CPU     31.46s WALL (  181396 calls)

     PWSCF        :  5m15.51s CPU     5m45.35s WALL


   This run was terminated on:  15:20:34  11Aug2024            

=------------------------------------------------------------------------------=
   JOB DONE.
=------------------------------------------------------------------------------=
