
     Program PWSCF v.6.0 (svn rev. 13079) starts on 11Aug2024 at 15:14:18 

     This program is part of the open-source Quantum ESPRESSO suite
     for quantum simulation of materials; please cite
         "P. Giannozzi et al., J. Phys.:Condens. Matter 21 395502 (2009);
          URL http://www.quantum-espresso.org", 
     in publications or presentations arising from this work. More details at
     http://www.quantum-espresso.org/quote

     Parallel version (MPI), running on    48 processors
     R & G space division:  proc/nbgrp/npool/nimage =      48
     Waiting for input...
     Reading input from standard input

     Current dimensions of program PWSCF are:
     Max number of different atomic species (ntypx) = 10
     Max number of k-points (npk) =  40000
     Max angular momentum in pseudopotentials (lmaxx) =  3

     Atomic positions and unit cell read from directory:
     ./tmp/aln.save/


     Subspace diagonalization in iterative solution of the eigenvalue problem:
     one sub-group per band group will be used
     ELPA distributed-memory algorithm (size of sub-group:  4*  4 procs)

     Found symmetry operation: I + (  0.5000  0.0000  0.0000)
     This is a supercell, fractional translations are disabled

     Parallelization info
     --------------------
     sticks:   dense  smooth     PW     G-vecs:    dense   smooth      PW
     Min         109      63     17                 5145     2280     329
     Max         110      64     18                 5150     2286     334
     Sum        5251    3067    847               247061   109583   15947



     bravais-lattice index     =            0
     lattice parameter (alat)  =      11.7829  a.u.
     unit-cell volume          =    1133.8434 (a.u.)^3
     number of atoms/cell      =           16
     number of atomic types    =            2
     number of electrons       =        64.00
     number of Kohn-Sham states=           38
     kinetic-energy cutoff     =      80.0000  Ry
     charge density cutoff     =     550.0000  Ry
     Exchange-correlation      = PBESOL ( 1  4 10  8 0 0)

     celldm(1)=  11.782901  celldm(2)=   0.000000  celldm(3)=   0.000000
     celldm(4)=   0.000000  celldm(5)=   0.000000  celldm(6)=   0.000000

     crystal axes: (cart. coord. in units of alat)
               a(1) = (   1.000000  -0.000000   0.000000 )  
               a(2) = (  -0.500000   0.866025   0.000000 )  
               a(3) = (   0.000000   0.000000   0.800324 )  

     reciprocal axes: (cart. coord. in units 2 pi/alat)
               b(1) = (  1.000000  0.577350 -0.000000 )  
               b(2) = (  0.000000  1.154701 -0.000000 )  
               b(3) = ( -0.000000 -0.000000  1.249494 )  


     PseudoPot. # 1 for Al read from file:
     pseudo/Al.pbesol-n-rrkjus_psl.1.0.0.UPF
     MD5 check sum: dbcefca01057e646ce9c389674ce64eb
     Pseudo is Ultrasoft + core correction, Zval =  3.0
     Generated using "atomic" code by A. Dal Corso  v.6.3
     Using radial grid of 1135 points,  6 beta functions with: 
                l(1) =   0
                l(2) =   0
                l(3) =   1
                l(4) =   1
                l(5) =   2
                l(6) =   2
     Q(r) pseudized with 0 coefficients 


     PseudoPot. # 2 for  N read from file:
     pseudo/N.pbesol-n-rrkjus_psl.1.0.0.UPF
     MD5 check sum: 006b6b9dfb5634708511e9f3c875aba4
     Pseudo is Ultrasoft + core correction, Zval =  5.0
     Generated using "atomic" code by A. Dal Corso  v.6.3MaX
     Using radial grid of 1085 points,  4 beta functions with: 
                l(1) =   0
                l(2) =   0
                l(3) =   1
                l(4) =   1
     Q(r) pseudized with 0 coefficients 


     atomic species   valence    mass     pseudopotential
        Al             3.00    26.98150     Al( 1.00)
        N              5.00    14.00670      N( 1.00)

      6 Sym. Ops. (no inversion) found



   Cartesian axes

     site n.     atom                  positions (alat units)
         1           Al  tau(   1) = (   0.2499999   0.1443381   0.3993923  )
         2           Al  tau(   2) = (  -0.0000005   0.5773506   0.3993865  )
         3           Al  tau(   3) = (   0.7499991   0.1443381   0.3993923  )
         4           Al  tau(   4) = (   0.4999995   0.5773501   0.3993923  )
         5           Al  tau(   5) = (   0.0000005   0.2886757   0.7995528  )
         6           Al  tau(   6) = (  -0.2499987   0.7216871   0.7995528  )
         7           Al  tau(   7) = (   0.5000005   0.2886748   0.7995529  )
         8           Al  tau(   8) = (   0.2499998   0.7216871   0.7995528  )
         9           N   tau(   9) = (   0.2499993   0.1443377   0.7050560  )
        10           N   tau(  10) = (  -0.0000005   0.5773506   0.7050574  )
        11           N   tau(  11) = (   0.7499997   0.1443377   0.7050560  )
        12           N   tau(  12) = (   0.4999995   0.5773508   0.7050560  )
        13           N   tau(  13) = (   0.0000005   0.2886750   0.3048921  )
        14           N   tau(  14) = (  -0.2499994   0.7216875   0.3048921  )
        15           N   tau(  15) = (   0.5000005   0.2886748   0.3048995  )
        16           N   tau(  16) = (   0.2500004   0.7216875   0.3048921  )

     number of k points=    18  gaussian smearing, width (Ry)=  0.0200
                       cart. coord. in units 2pi/alat
        k(    1) = (   0.0000000   0.0000000   0.0000000), wk =   0.0208333
        k(    2) = (   0.0000000   0.0000000   0.2082490), wk =   0.0416667
        k(    3) = (   0.0000000   0.0000000   0.4164980), wk =   0.0416667
        k(    4) = (   0.0000000   0.0000000  -0.6247470), wk =   0.0208333
        k(    5) = (   0.0000000   0.2886751   0.0000000), wk =   0.1250000
        k(    6) = (   0.0000000   0.2886751   0.2082490), wk =   0.1250000
        k(    7) = (   0.0000000   0.2886751   0.4164980), wk =   0.1250000
        k(    8) = (   0.0000000   0.2886751  -0.6247470), wk =   0.1250000
        k(    9) = (   0.0000000  -0.5773503   0.0000000), wk =   0.0625000
        k(   10) = (   0.0000000  -0.5773503   0.2082490), wk =   0.1250000
        k(   11) = (   0.0000000  -0.5773503   0.4164980), wk =   0.1250000
        k(   12) = (   0.0000000  -0.5773503  -0.6247470), wk =   0.0625000
        k(   13) = (   0.2500000   0.4330127   0.0000000), wk =   0.1250000
        k(   14) = (   0.2500000   0.4330127   0.2082490), wk =   0.2500000
        k(   15) = (   0.2500000   0.4330127   0.4164980), wk =   0.2500000
        k(   16) = (   0.2500000   0.4330127  -0.6247470), wk =   0.1250000
        k(   17) = (   0.0000000  -0.2886751   0.2082490), wk =   0.1250000
        k(   18) = (   0.0000000  -0.2886751   0.4164980), wk =   0.1250000

     Dense  grid:   247061 G-vectors     FFT dimensions: (  90,  90,  72)

     Smooth grid:   109583 G-vectors     FFT dimensions: (  72,  72,  54)

     Estimated max dynamical RAM per process >       8.48Mb

     Estimated total allocated dynamical RAM >     407.14Mb

     The potential is recalculated from file :
     ./tmp/aln.save/charge-density.dat

     Starting wfc are   64 randomized atomic wfcs

     Band Structure Calculation
     Davidson diagonalization with overlap

     ethr =  1.56E-11,  avg # of iterations = 22.1

     total cpu time spent up to now is       30.0 secs

     End of band structure calculation

          k = 0.0000 0.0000 0.0000 ( 13707 PWs)   bands (ev):

    -8.1793  -6.1952  -6.1952  -6.1952  -6.0101  -5.4947  -5.4946  -5.4946
     0.9264   1.4725   1.4725   1.4726   2.7726   2.7727   2.7727   3.5956
     3.5956   3.5957   4.8570   4.8570   4.8570   5.1657   5.1658   5.1658
     6.0960   6.0960   6.2704   6.2704   6.2705   6.7522   6.7522   6.9733
    11.0411  12.6301  12.6301  12.6302  12.6392  12.6392

          k = 0.0000 0.0000 0.2082 ( 13701 PWs)   bands (ev):

    -8.0724  -6.2211  -6.1432  -6.1432  -6.1432  -5.5329  -5.5328  -5.5328
     1.3014   1.3256   1.3256   1.3257   2.3994   2.3995   2.3995   3.9866
     3.9866   3.9867   4.9347   4.9348   4.9348   5.5145   5.5146   5.5146
     6.1375   6.1376   6.1527   6.1527   6.1528   6.3603   6.7058   6.7059
    11.5416  12.1631  12.1631  12.1632  12.6942  12.6943

          k = 0.0000 0.0000 0.4165 ( 13695 PWs)   bands (ev):

    -7.7622  -6.7213  -6.0029  -6.0029  -6.0029  -5.6462  -5.6462  -5.6462
     1.1844   1.1844   1.1844   1.7723   1.7723   1.7723   2.2831   4.8103
     4.8104   4.8104   5.0579   5.1567   5.1567   5.1568   5.8532   5.8532
     5.8532   5.8797   5.8798   5.8798   6.2528   6.2529   6.5809   6.5809
    11.7779  11.7779  11.7779  12.4964  12.6482  12.6482

          k = 0.0000 0.0000-0.6247 ( 13682 PWs)   bands (ev):

    -7.2856  -7.2856  -5.8180  -5.8180  -5.8180  -5.8180  -5.8180  -5.8180
     1.3229   1.3229   1.3229   1.3229   1.3229   1.3229   3.6111   3.6111
     5.4861   5.4861   5.4861   5.4861   5.4861   5.4862   5.5922   5.5922
     5.5922   5.5922   5.5922   5.5923   6.4144   6.4144   6.4144   6.4145
    12.1305  12.1306  12.1306  12.1306  12.1306  12.1307

          k = 0.0000 0.2887 0.0000 ( 13739 PWs)   bands (ev):

    -7.9807  -6.6743  -6.2475  -6.2475  -5.8993  -5.4501  -5.4495  -5.4495
     1.1631   1.7592   1.7592   2.0266   2.8424   2.9679   2.9680   3.2755
     3.4935   3.4935   4.3535   4.3535   4.9990   5.2164   5.3441   5.3442
     5.7777   5.7778   5.8126   5.8502   5.9186   6.3531   6.7145   6.8805
    11.8794  12.6248  12.6249  12.9048  13.1468  13.5205

          k = 0.0000 0.2887 0.2082 ( 13712 PWs)   bands (ev):

    -7.8765  -6.5998  -6.1913  -6.1913  -6.0973  -5.5392  -5.4970  -5.4970
     1.5019   1.6158   1.6158   1.7815   2.5878   2.5879   2.8105   3.5718
     3.8235   3.8235   4.5313   4.5313   5.0742   5.2664   5.4837   5.4837
     5.6466   5.8047   5.8047   5.9026   5.9744   6.2417   6.6502   6.6654
    12.1955  12.4681  12.4682  12.4853  13.1400  13.5431

          k = 0.0000 0.2887 0.4165 ( 13686 PWs)   bands (ev):

    -7.5748  -6.5718  -6.3908  -6.0382  -6.0382  -5.7780  -5.6336  -5.6336
     1.4742   1.4742   1.6457   2.0149   2.0149   2.2899   2.3820   4.2064
     4.2064   4.5197   4.6964   5.0612   5.0612   5.2838   5.2839   5.2885
     5.5672   5.9567   6.0068   6.0492   6.1205   6.1205   6.2730   6.4799
    12.1466  12.3481  12.3482  12.9134  13.0210  13.3443

          k = 0.0000 0.2887-0.6247 ( 13690 PWs)   bands (ev):

    -7.1135  -7.1134  -6.0921  -6.0920  -5.8320  -5.8320  -5.8319  -5.8319
     1.5998   1.5998   1.5998   1.5998   1.8362   1.8363   3.5379   3.5379
     4.6359   4.6360   4.6360   4.6360   5.4610   5.4610   5.6054   5.6054
     5.8869   5.8869   5.9222   5.9223   5.9223   5.9223   6.2586   6.2587
    12.4847  12.4848  12.7300  12.7300  12.7301  12.7301

          k = 0.0000-0.5774 0.0000 ( 13714 PWs)   bands (ev):

    -7.4262  -7.4262  -6.2938  -6.2938  -5.6379  -5.6379  -5.4105  -5.4105
     1.8440   1.8440   2.3134   2.3134   2.8533   2.8533   3.4027   3.4027
     3.4800   3.4800   4.0878   4.0878   4.4839   4.4840   5.1471   5.1471
     5.3809   5.3809   5.5188   5.5188   6.5282   6.5283   6.5485   6.5485
    12.5463  12.5463  13.0242  13.0242  14.4242  14.4243

          k = 0.0000-0.5774 0.2082 ( 13698 PWs)   bands (ev):

    -7.3314  -7.3314  -6.2341  -6.2341  -5.7948  -5.7948  -5.4666  -5.4666
     1.9929   1.9929   2.2963   2.2964   2.3677   2.3677   3.6444   3.6444
     3.8429   3.8429   4.1120   4.1121   4.3052   4.3052   4.9767   4.9767
     5.4478   5.4478   5.8501   5.8501   6.4559   6.4559   6.4630   6.4630
    12.7802  12.7802  12.8965  12.8965  14.3573  14.3573

          k = 0.0000-0.5774 0.4165 ( 13712 PWs)   bands (ev):

    -7.0593  -7.0593  -6.1853  -6.1853  -6.0702  -6.0702  -5.6241  -5.6241
     2.0126   2.0126   2.1662   2.1662   2.3814   2.3814   3.4912   3.4912
     3.7019   3.7019   4.4055   4.4055   4.5424   4.5424   5.2378   5.2378
     5.6373   5.6373   6.0882   6.0882   6.2028   6.2029   6.2159   6.2159
    12.9155  12.9155  13.2134  13.2134  13.8242  13.8242

          k = 0.0000-0.5774-0.6247 ( 13684 PWs)   bands (ev):

    -6.6506  -6.6505  -6.6505  -6.6505  -5.8458  -5.8458  -5.8458  -5.8457
     1.9864   1.9864   1.9864   1.9864   2.9165   2.9165   2.9166   2.9166
     3.9622   3.9622   3.9622   3.9622   5.3496   5.3496   5.3496   5.3497
     5.9141   5.9141   5.9142   5.9142   5.9925   5.9926   5.9926   5.9926
    13.3549  13.3550  13.3550  13.3550  13.4737  13.4738

          k = 0.2500 0.4330 0.0000 ( 13681 PWs)   bands (ev):

    -7.6032  -6.9393  -6.9393  -5.8543  -5.7117  -5.5284  -5.4794  -5.4794
     1.6228   1.9764   2.4743   2.4743   2.7759   2.7759   3.1530   3.3213
     3.5128   3.5128   4.1605   4.2789   4.4499   4.7605   4.9225   4.9348
     4.9348   5.7039   6.0133   6.0133   6.1421   6.1421   6.3993   6.6615
    12.0121  12.9137  13.5896  13.5896  13.8573  13.8574

          k = 0.2500 0.4330 0.2082 ( 13698 PWs)   bands (ev):

    -7.5050  -6.8560  -6.8560  -5.8827  -5.8229  -5.5953  -5.5953  -5.5388
     1.8614   1.9595   2.2014   2.2014   2.7759   3.0229   3.0229   3.0361
     3.7194   3.7194   4.3341   4.4334   4.5207   4.7502   4.8601   4.8601
     5.3769   5.5847   5.8574   5.8574   6.2929   6.2929   6.3102   6.5978
    12.3391  12.9823  13.2438  13.2439  13.9431  13.9431

          k = 0.2500 0.4330 0.4165 ( 13688 PWs)   bands (ev):

    -7.2223  -6.6197  -6.6197  -6.3024  -5.8961  -5.8961  -5.7427  -5.5764
     1.8716   2.1350   2.1350   2.2249   2.4619   2.7546   2.7546   3.0365
     3.8947   3.9938   4.4651   4.4651   4.8716   4.9727   4.9727   5.5198
     5.5449   5.5449   5.6066   6.0026   6.0904   6.2584   6.2584   6.2677
    13.0008  13.0008  13.0335  13.2597  13.6927  13.6927

          k = 0.2500 0.4330-0.6247 ( 13692 PWs)   bands (ev):

    -6.7948  -6.7947  -6.2738  -6.2738  -6.2738  -6.2738  -5.6488  -5.6488
     1.9034   1.9034   2.3617   2.3617   2.3617   2.3617   3.2033   3.2033
     3.4304   3.4304   4.9885   4.9885   4.9885   4.9885   5.4270   5.4270
     5.7508   5.7508   5.7508   5.7508   5.9131   5.9132   6.1311   6.1312
    13.2265  13.2266  13.2266  13.2266  13.6900  13.6901

          k = 0.0000-0.2887 0.2082 ( 13712 PWs)   bands (ev):

    -7.8765  -6.5998  -6.1913  -6.1913  -6.0973  -5.5392  -5.4970  -5.4970
     1.5019   1.6158   1.6158   1.7815   2.5878   2.5879   2.8105   3.5718
     3.8235   3.8235   4.5313   4.5313   5.0742   5.2664   5.4837   5.4837
     5.6466   5.8047   5.8047   5.9026   5.9744   6.2417   6.6502   6.6654
    12.1955  12.4681  12.4681  12.4853  13.1399  13.5431

          k = 0.0000-0.2887 0.4165 ( 13686 PWs)   bands (ev):

    -7.5748  -6.5718  -6.3908  -6.0382  -6.0382  -5.7780  -5.6336  -5.6336
     1.4742   1.4742   1.6457   2.0149   2.0149   2.2899   2.3820   4.2064
     4.2064   4.5197   4.6964   5.0612   5.0612   5.2839   5.2839   5.2885
     5.5672   5.9567   6.0068   6.0492   6.1205   6.1205   6.2730   6.4799
    12.1466  12.3481  12.3481  12.9134  13.0210  13.3443

     the Fermi energy is     9.0455 ev

     Writing output data file aln.save

     init_run     :      0.59s CPU      0.66s WALL (       1 calls)
     electrons    :     26.49s CPU     28.55s WALL (       1 calls)

     Called by init_run:
     wfcinit      :      0.00s CPU      0.00s WALL (       1 calls)
     potinit      :      0.07s CPU      0.07s WALL (       1 calls)

     Called by electrons:
     c_bands      :     26.49s CPU     28.55s WALL (       1 calls)
     v_of_rho     :      0.02s CPU      0.02s WALL (       1 calls)
     newd         :      0.06s CPU      0.08s WALL (       1 calls)

     Called by c_bands:
     init_us_2    :      0.01s CPU      0.01s WALL (      18 calls)
     cegterg      :     24.54s CPU     26.47s WALL (      31 calls)

     Called by sum_band:

     Called by *egterg:
     h_psi        :     10.91s CPU     11.53s WALL (     446 calls)
     s_psi        :      1.90s CPU      1.91s WALL (     446 calls)
     g_psi        :      0.02s CPU      0.02s WALL (     397 calls)
     cdiaghg      :      7.40s CPU      8.26s WALL (     415 calls)

     Called by h_psi:
     h_psi:pot    :     10.88s CPU     11.50s WALL (     446 calls)
     h_psi:calbec :      2.53s CPU      2.66s WALL (     446 calls)
     vloc_psi     :      6.40s CPU      6.88s WALL (     446 calls)
     add_vuspsi   :      1.94s CPU      1.95s WALL (     446 calls)

     General routines
     calbec       :      2.53s CPU      2.66s WALL (     446 calls)
     fft          :      0.03s CPU      0.03s WALL (      13 calls)
     ffts         :      0.01s CPU      0.01s WALL (       1 calls)
     fftw         :      6.02s CPU      6.49s WALL (   19080 calls)
     interpolate  :      0.01s CPU      0.01s WALL (       1 calls)
     davcio       :      0.01s CPU      0.01s WALL (      18 calls)

     Parallel routines
     fft_scatter  :      2.83s CPU      3.17s WALL (   19094 calls)

     PWSCF        :    27.92s CPU        30.07s WALL


   This run was terminated on:  15:14:48  11Aug2024            

=------------------------------------------------------------------------------=
   JOB DONE.
=------------------------------------------------------------------------------=
