
     Program BANDS v.6.0 (svn rev. 13079) starts on 11Aug2024 at 15:20:35 

     This program is part of the open-source Quantum ESPRESSO suite
     for quantum simulation of materials; please cite
         "P. Giannozzi et al., J. Phys.:Condens. Matter 21 395502 (2009);
          URL http://www.quantum-espresso.org", 
     in publications or presentations arising from this work. More details at
     http://www.quantum-espresso.org/quote

     Parallel version (MPI), running on    48 processors
     R & G space division:  proc/nbgrp/npool/nimage =      48

     Reading data from directory:
     ./tmp/aln.save

   Info: using nr1, nr2, nr3 values from input

   Info: using nr1, nr2, nr3 values from input

     IMPORTANT: XC functional enforced from input :
     Exchange-correlation      = PBESOL ( 1  4 10  8 0 0)
     Any further DFT definition will be discarded
     Please, verify this is what you really want


     Parallelization info
     --------------------
     sticks:   dense  smooth     PW     G-vecs:    dense   smooth      PW
     Min         109      63     17                 5145     2280     333
     Max         110      64     18                 5150     2286     338
     Sum        5251    3067    847               247061   109583   16079

     high-symmetry point:  0.0000 0.0000 0.0000   x coordinate   0.0000
     high-symmetry point:  0.0000 0.0000 0.6247   x coordinate   0.6247
     high-symmetry point:  0.6667-0.0000 0.6247   x coordinate   1.2914
     high-symmetry point:  0.6667-0.0000 0.0000   x coordinate   1.9162
     high-symmetry point:  0.0000 0.0000 0.0000   x coordinate   2.5828
     high-symmetry point:  0.5000 0.2887 0.0000   x coordinate   3.1602
     high-symmetry point:  0.5000 0.2887 0.6247   x coordinate   3.7849

     Plottable bands (eV) written to file ../data/AlN_221_1/bands/bands.gnu
     Bands written to file ../data/AlN_221_1/bands/bands

 **************************************************************************

                    xk=(   0.00000,   0.00000,   0.00000  )

     point group C_3v (3m)  
     there are  3 classes
     the character table:

       E     2C3   3s_v 
A_1    1.00  1.00  1.00
A_2    1.00  1.00 -1.00
E      2.00 -1.00  0.00

     the symmetry operations in each class and the name of the first element:

     E        1
                                                                 
     2C3      2    3
                                                                 
     3s_v     4    5    6
                                                                 

     Band symmetry, C_3v (3m)   point group:

     e(  1 -  1) =     -8.17933  eV     1   --> A_1  L_1       
     e(  2 -  4) =     -6.19523  eV     3   --> A_1  L_1       
     e(  2 -  4) =     -6.19523  eV     3   --> E    L_3       
     e(  5 -  5) =     -6.01010  eV     1   --> A_1  L_1       
     e(  6 -  8) =     -5.49468  eV     3   --> A_1  L_1       
     e(  6 -  8) =     -5.49468  eV     3   --> E    L_3       
     e(  9 -  9) =      0.92639  eV     1   --> A_1  L_1       
     e( 10 - 12) =      1.47252  eV     3   --> A_1  L_1       
     e( 10 - 12) =      1.47252  eV     3   --> E    L_3       
     e( 13 - 15) =      2.77260  eV     3   --> A_1  L_1       
     e( 13 - 15) =      2.77260  eV     3   --> E    L_3       
     e( 16 - 18) =      3.59560  eV     3   --> A_1  L_1       
     e( 16 - 18) =      3.59560  eV     3   --> E    L_3       
     e( 19 - 21) =      4.85698  eV     3   --> A_2  L_2       
     e( 19 - 21) =      4.85698  eV     3   --> E    L_3       
     e( 22 - 24) =      5.16569  eV     3   --> A_1  L_1       
     e( 22 - 24) =      5.16569  eV     3   --> E    L_3       
     e( 25 - 26) =      6.09598  eV     2   --> E    L_3       
     e( 27 - 29) =      6.27041  eV     3   --> A_2  L_2       
     e( 27 - 29) =      6.27041  eV     3   --> E    L_3       
     e( 30 - 31) =      6.75217  eV     2   --> E    L_3       
     e( 32 - 32) =      6.97326  eV     1   --> A_1  L_1       
     e( 33 - 33) =     11.04108  eV     1   --> A_1  L_1       
     e( 34 - 36) =     12.63011  eV     3   --> A_1  L_1       
     e( 34 - 36) =     12.63011  eV     3   --> E    L_3       
     e( 37 - 39) =     12.63920  eV     3   --> A_1  L_1       
     e( 37 - 39) =     12.63920  eV     3   --> E    L_3       
     e( 40 - 40) =     13.48422  eV     1   --> A_1  L_1       
     e( 41 - 43) =     15.00854  eV     3   --> A_1  L_1       
     e( 41 - 43) =     15.00854  eV     3   --> E    L_3       
     e( 44 - 46) =     17.10349  eV     3   --> A_1  L_1       
     e( 44 - 46) =     17.10349  eV     3   --> E    L_3       
     e( 47 - 47) =     17.43124  eV     1   --> A_1  L_1       
     e( 48 - 50) =     17.74043  eV     3   --> A_2  L_2       
     e( 48 - 50) =     17.74043  eV     3   --> E    L_3       
     e( 51 - 52) =     17.97187  eV     2   --> E    L_3       
     e( 53 - 53) =     19.00277  eV     1   -->   ?
     e( 54 - 55) =     19.00295  eV     2   -->   ?
     e( 56 - 58) =     19.63018  eV     3   --> A_1  L_1       
     e( 56 - 58) =     19.63018  eV     3   --> E    L_3       
     e( 59 - 59) =     19.93678  eV     1   --> A_1  L_1       
     e( 60 - 61) =     19.96171  eV     2   --> E    L_3       
     e( 62 - 63) =     21.33751  eV     2   --> E    L_3       
     e( 64 - 64) =     21.52358  eV     1   --> A_1  L_1       

 **************************************************************************

 **************************************************************************

                    xk=(   0.00000,   0.00000,   0.03124  )

     Band symmetry, C_3v (3m)   point group:

     e(  1 -  1) =     -8.17690  eV     1   --> A_1  L_1       
     e(  2 -  4) =     -6.19403  eV     3   --> A_1  L_1       
     e(  2 -  4) =     -6.19403  eV     3   --> E    L_3       
     e(  5 -  5) =     -6.01517  eV     1   --> A_1  L_1       
     e(  6 -  8) =     -5.49554  eV     3   --> A_1  L_1       
     e(  6 -  8) =     -5.49554  eV     3   --> E    L_3       
     e(  9 -  9) =      0.93517  eV     1   --> A_1  L_1       
     e( 10 - 12) =      1.46814  eV     3   --> A_1  L_1       
     e( 10 - 12) =      1.46814  eV     3   --> E    L_3       
     e( 13 - 15) =      2.76224  eV     3   --> A_1  L_1       
     e( 13 - 15) =      2.76224  eV     3   --> E    L_3       
     e( 16 - 18) =      3.60555  eV     3   --> A_1  L_1       
     e( 16 - 18) =      3.60555  eV     3   --> E    L_3       
     e( 19 - 21) =      4.85875  eV     3   --> A_2  L_2       
     e( 19 - 21) =      4.85875  eV     3   --> E    L_3       
     e( 22 - 24) =      5.17589  eV     3   --> A_1  L_1       
     e( 22 - 24) =      5.17589  eV     3   --> E    L_3       
     e( 25 - 26) =      6.09693  eV     2   --> E    L_3       
     e( 27 - 29) =      6.26765  eV     3   --> A_2  L_2       
     e( 27 - 29) =      6.26765  eV     3   --> E    L_3       
     e( 30 - 31) =      6.75110  eV     2   --> E    L_3       
     e( 32 - 32) =      6.95755  eV     1   --> A_1  L_1       
     e( 33 - 33) =     11.05427  eV     1   --> A_1  L_1       
     e( 34 - 36) =     12.62354  eV     3   --> A_1  L_1       
     e( 34 - 36) =     12.62354  eV     3   --> E    L_3       
     e( 37 - 39) =     12.63195  eV     3   --> A_1  L_1       
     e( 37 - 39) =     12.63195  eV     3   --> E    L_3       
     e( 40 - 40) =     13.48595  eV     1   --> A_1  L_1       
     e( 41 - 43) =     15.02980  eV     3   --> A_1  L_1       
     e( 41 - 43) =     15.02980  eV     3   --> E    L_3       
     e( 44 - 46) =     17.08863  eV     3   --> A_1  L_1       
     e( 44 - 46) =     17.08863  eV     3   --> E    L_3       
     e( 47 - 47) =     17.42681  eV     1   --> A_1  L_1       
     e( 48 - 50) =     17.74772  eV     3   --> A_2  L_2       
     e( 48 - 50) =     17.74772  eV     3   --> E    L_3       
     e( 51 - 52) =     17.97075  eV     2   --> E    L_3       
     e( 53 - 53) =     19.00747  eV     1   -->   ?
     e( 54 - 55) =     19.00765  eV     2   -->   ?
     e( 56 - 58) =     19.61176  eV     3   --> A_1  L_1       
     e( 56 - 58) =     19.61176  eV     3   --> E    L_3       
     e( 59 - 59) =     19.90933  eV     1   --> A_1  L_1       
     e( 60 - 61) =     19.95129  eV     2   --> E    L_3       
     e( 62 - 63) =     21.34841  eV     2   --> E    L_3       
     e( 64 - 64) =     21.54936  eV     1   --> A_1  L_1       

 **************************************************************************

 **************************************************************************

                    xk=(   0.00000,   0.00000,   0.06247  )

     Band symmetry, C_3v (3m)   point group:

     e(  1 -  1) =     -8.16963  eV     1   --> A_1  L_1       
     e(  2 -  4) =     -6.19044  eV     3   --> A_1  L_1       
     e(  2 -  4) =     -6.19044  eV     3   --> E    L_3       
     e(  5 -  5) =     -6.03028  eV     1   --> A_1  L_1       
     e(  6 -  8) =     -5.49811  eV     3   --> A_1  L_1       
     e(  6 -  8) =     -5.49811  eV     3   --> E    L_3       
     e(  9 -  9) =      0.96141  eV     1   --> A_1  L_1       
     e( 10 - 12) =      1.45536  eV     3   --> A_1  L_1       
     e( 10 - 12) =      1.45536  eV     3   --> E    L_3       
     e( 13 - 15) =      2.73191  eV     3   --> A_1  L_1       
     e( 13 - 15) =      2.73191  eV     3   --> E    L_3       
     e( 16 - 18) =      3.63502  eV     3   --> A_1  L_1       
     e( 16 - 18) =      3.63502  eV     3   --> E    L_3       
     e( 19 - 21) =      4.86405  eV     3   --> A_2  L_2       
     e( 19 - 21) =      4.86405  eV     3   --> E    L_3       
     e( 22 - 24) =      5.20565  eV     3   --> A_1  L_1       
     e( 22 - 24) =      5.20565  eV     3   --> E    L_3       
     e( 25 - 26) =      6.09978  eV     2   --> E    L_3       
     e( 27 - 29) =      6.25939  eV     3   --> A_2  L_2       
     e( 27 - 29) =      6.25939  eV     3   --> E    L_3       
     e( 30 - 31) =      6.74790  eV     2   --> E    L_3       
     e( 32 - 32) =      6.91109  eV     1   --> A_1  L_1       
     e( 33 - 33) =     11.09318  eV     1   --> A_1  L_1       
     e( 34 - 36) =     12.57861  eV     3   --> A_1  L_1       
     e( 34 - 36) =     12.57861  eV     3   --> E    L_3       
     e( 37 - 39) =     12.63737  eV     3   --> A_1  L_1       
     e( 37 - 39) =     12.63737  eV     3   --> E    L_3       
     e( 40 - 40) =     13.49110  eV     1   --> A_1  L_1       
     e( 41 - 43) =     15.09153  eV     3   --> A_1  L_1       
     e( 41 - 43) =     15.09153  eV     3   --> E    L_3       
     e( 44 - 46) =     17.04509  eV     3   --> A_1  L_1       
     e( 44 - 46) =     17.04509  eV     3   --> E    L_3       
     e( 47 - 47) =     17.41366  eV     1   --> A_1  L_1       
     e( 48 - 50) =     17.76956  eV     3   --> A_2  L_2       
     e( 48 - 50) =     17.76956  eV     3   --> E    L_3       
     e( 51 - 52) =     17.96751  eV     2   --> E    L_3       
     e( 53 - 53) =     19.02084  eV     1   -->   ?
     e( 54 - 55) =     19.02101  eV     2   -->   ?
     e( 56 - 58) =     19.55769  eV     3   --> A_1  L_1       
     e( 56 - 58) =     19.55769  eV     3   --> E    L_3       
     e( 59 - 59) =     19.83192  eV     1   --> A_1  L_1       
     e( 60 - 61) =     19.92060  eV     2   --> E    L_3       
     e( 62 - 63) =     21.38095  eV     2   --> E    L_3       
     e( 64 - 64) =     21.62190  eV     1   --> A_1  L_1       

 **************************************************************************

 **************************************************************************

                    xk=(   0.00000,   0.00000,   0.09371  )

     Band symmetry, C_3v (3m)   point group:

     e(  1 -  1) =     -8.15753  eV     1   --> A_1  L_1       
     e(  2 -  4) =     -6.18448  eV     3   --> A_1  L_1       
     e(  2 -  4) =     -6.18448  eV     3   --> E    L_3       
     e(  5 -  5) =     -6.05516  eV     1   --> A_1  L_1       
     e(  6 -  8) =     -5.50239  eV     3   --> A_1  L_1       
     e(  6 -  8) =     -5.50239  eV     3   --> E    L_3       
     e(  9 -  9) =      1.00481  eV     1   --> A_1  L_1       
     e( 10 - 12) =      1.43525  eV     3   --> A_1  L_1       
     e( 10 - 12) =      1.43525  eV     3   --> E    L_3       
     e( 13 - 15) =      2.68356  eV     3   --> A_1  L_1       
     e( 13 - 15) =      2.68356  eV     3   --> E    L_3       
     e( 16 - 18) =      3.68289  eV     3   --> A_1  L_1       
     e( 16 - 18) =      3.68289  eV     3   --> E    L_3       
     e( 19 - 21) =      4.87287  eV     3   --> A_2  L_2       
     e( 19 - 21) =      4.87287  eV     3   --> E    L_3       
     e( 22 - 24) =      5.25269  eV     3   --> A_1  L_1       
     e( 22 - 24) =      5.25269  eV     3   --> E    L_3       
     e( 25 - 26) =      6.10452  eV     2   --> E    L_3       
     e( 27 - 29) =      6.24575  eV     3   --> A_2  L_2       
     e( 27 - 29) =      6.24575  eV     3   --> E    L_3       
     e( 30 - 31) =      6.74259  eV     2   --> E    L_3       
     e( 32 - 32) =      6.83574  eV     1   --> A_1  L_1       
     e( 33 - 33) =     11.15591  eV     1   --> A_1  L_1       
     e( 34 - 36) =     12.50977  eV     3   --> A_1  L_1       
     e( 34 - 36) =     12.50977  eV     3   --> E    L_3       
     e( 37 - 39) =     12.64605  eV     3   --> A_1  L_1       
     e( 37 - 39) =     12.64605  eV     3   --> E    L_3       
     e( 40 - 40) =     13.49947  eV     1   --> A_1  L_1       
     e( 41 - 43) =     15.18834  eV     3   --> A_1  L_1       
     e( 41 - 43) =     15.18834  eV     3   --> E    L_3       
     e( 44 - 46) =     16.97576  eV     3   --> A_1  L_1       
     e( 44 - 46) =     16.97576  eV     3   --> E    L_3       
     e( 47 - 47) =     17.39217  eV     1   --> A_1  L_1       
     e( 48 - 50) =     17.80580  eV     3   --> A_2  L_2       
     e( 48 - 50) =     17.80580  eV     3   --> E    L_3       
     e( 51 - 52) =     17.96255  eV     2   --> E    L_3       
     e( 53 - 53) =     19.04086  eV     1   -->   ?
     e( 54 - 55) =     19.04103  eV     2   -->   ?
     e( 56 - 58) =     19.47118  eV     3   --> A_1  L_1       
     e( 56 - 58) =     19.47118  eV     3   --> E    L_3       
     e( 59 - 59) =     19.71589  eV     1   --> A_1  L_1       
     e( 60 - 61) =     19.87123  eV     2   --> E    L_3       
     e( 62 - 63) =     21.43469  eV     2   --> E    L_3       
     e( 64 - 64) =     21.73022  eV     1   --> A_1  L_1       

 **************************************************************************

 **************************************************************************

                    xk=(   0.00000,   0.00000,   0.12495  )

     Band symmetry, C_3v (3m)   point group:

     e(  1 -  1) =     -8.14063  eV     1   --> A_1  L_1       
     e(  2 -  4) =     -6.17620  eV     3   --> A_1  L_1       
     e(  2 -  4) =     -6.17620  eV     3   --> E    L_3       
     e(  5 -  5) =     -6.08934  eV     1   --> A_1  L_1       
     e(  6 -  8) =     -5.50840  eV     3   --> A_1  L_1       
     e(  6 -  8) =     -5.50840  eV     3   --> E    L_3       
     e(  9 -  9) =      1.06488  eV     1   --> A_1  L_1       
     e( 10 - 12) =      1.40933  eV     3   --> A_1  L_1       
     e( 10 - 12) =      1.40933  eV     3   --> E    L_3       
     e( 13 - 15) =      2.61998  eV     3   --> A_1  L_1       
     e( 13 - 15) =      2.61998  eV     3   --> E    L_3       
     e( 16 - 18) =      3.74750  eV     3   --> A_1  L_1       
     e( 16 - 18) =      3.74750  eV     3   --> E    L_3       
     e( 19 - 21) =      4.88518  eV     3   --> A_2  L_2       
     e( 19 - 21) =      4.88518  eV     3   --> E    L_3       
     e( 22 - 24) =      5.31365  eV     3   --> A_1  L_1       
     e( 22 - 24) =      5.31365  eV     3   --> E    L_3       
     e( 25 - 26) =      6.11112  eV     2   --> E    L_3       
     e( 27 - 29) =      6.22686  eV     3   --> A_2  L_2       
     e( 27 - 29) =      6.22686  eV     3   --> E    L_3       
     e( 30 - 30) =      6.73424  eV     1   --> A_1  L_1       
     e( 31 - 32) =      6.73520  eV     2   --> E    L_3       
     e( 33 - 33) =     11.23972  eV     1   --> A_1  L_1       
     e( 34 - 36) =     12.42397  eV     3   --> A_1  L_1       
     e( 34 - 36) =     12.42397  eV     3   --> E    L_3       
     e( 37 - 39) =     12.65744  eV     3   --> A_1  L_1       
     e( 37 - 39) =     12.65744  eV     3   --> E    L_3       
     e( 40 - 40) =     13.51075  eV     1   --> A_1  L_1       
     e( 41 - 43) =     15.31324  eV     3   --> A_1  L_1       
     e( 41 - 43) =     15.31324  eV     3   --> E    L_3       
     e( 44 - 46) =     16.88480  eV     3   --> A_1  L_1       
     e( 44 - 46) =     16.88480  eV     3   --> E    L_3       
     e( 47 - 47) =     17.36304  eV     1   --> A_1  L_1       
     e( 48 - 50) =     17.85618  eV     3   --> A_2  L_2       
     e( 48 - 50) =     17.85618  eV     3   --> E    L_3       
     e( 51 - 52) =     17.95646  eV     2   --> E    L_3       
     e( 53 - 53) =     19.06483  eV     1   -->   ?
     e( 54 - 55) =     19.06499  eV     2   -->   ?
     e( 56 - 58) =     19.35697  eV     3   --> A_1  L_1       
     e( 56 - 58) =     19.35697  eV     3   --> E    L_3       
     e( 59 - 59) =     19.57300  eV     1   --> A_1  L_1       
     e( 60 - 61) =     19.80552  eV     2   --> E    L_3       
     e( 62 - 63) =     21.50895  eV     2   --> E    L_3       
     e( 64 - 64) =     21.86319  eV     1   --> A_1  L_1       

 **************************************************************************

 **************************************************************************

                    xk=(   0.00000,   0.00000,   0.15619  )

     Band symmetry, C_3v (3m)   point group:

     e(  1 -  1) =     -8.11895  eV     1   --> A_1  L_1       
     e(  2 -  4) =     -6.16565  eV     3   --> A_1  L_1       
     e(  2 -  4) =     -6.16565  eV     3   --> E    L_3       
     e(  5 -  5) =     -6.13223  eV     1   --> A_1  L_1       
     e(  6 -  8) =     -5.51613  eV     3   --> A_1  L_1       
     e(  6 -  8) =     -5.51613  eV     3   --> E    L_3       
     e(  9 -  9) =      1.14100  eV     1   --> A_1  L_1       
     e( 10 - 12) =      1.37941  eV     3   --> A_1  L_1       
     e( 10 - 12) =      1.37941  eV     3   --> E    L_3       
     e( 13 - 15) =      2.54429  eV     3   --> A_1  L_1       
     e( 13 - 15) =      2.54429  eV     3   --> E    L_3       
     e( 16 - 18) =      3.82693  eV     3   --> A_1  L_1       
     e( 16 - 18) =      3.82693  eV     3   --> E    L_3       
     e( 19 - 21) =      4.90095  eV     3   --> A_2  L_2       
     e( 19 - 21) =      4.90095  eV     3   --> E    L_3       
     e( 22 - 24) =      5.38469  eV     3   --> A_1  L_1       
     e( 22 - 24) =      5.38469  eV     3   --> E    L_3       
     e( 25 - 26) =      6.11955  eV     2   --> E    L_3       
     e( 27 - 29) =      6.20296  eV     3   --> A_2  L_2       
     e( 27 - 29) =      6.20296  eV     3   --> E    L_3       
     e( 30 - 30) =      6.60980  eV     1   --> A_1  L_1       
     e( 31 - 32) =      6.72580  eV     2   --> E    L_3       
     e( 33 - 33) =     11.34140  eV     1   --> A_1  L_1       
     e( 34 - 36) =     12.32823  eV     3   --> A_1  L_1       
     e( 34 - 36) =     12.32823  eV     3   --> E    L_3       
     e( 37 - 39) =     12.67077  eV     3   --> A_1  L_1       
     e( 37 - 39) =     12.67077  eV     3   --> E    L_3       
     e( 40 - 40) =     13.52449  eV     1   --> A_1  L_1       
     e( 41 - 43) =     15.45904  eV     3   --> A_1  L_1       
     e( 41 - 43) =     15.45904  eV     3   --> E    L_3       
     e( 44 - 46) =     16.77701  eV     3   --> A_1  L_1       
     e( 44 - 46) =     16.77701  eV     3   --> E    L_3       
     e( 47 - 47) =     17.32720  eV     1   --> A_1  L_1       
     e( 48 - 50) =     17.92037  eV     3   --> A_2  L_2       
     e( 48 - 50) =     17.92037  eV     3   --> E    L_3       
     e( 51 - 52) =     17.95001  eV     2   --> E    L_3       
     e( 53 - 53) =     19.08993  eV     1   -->   ?
     e( 54 - 55) =     19.09007  eV     2   -->   ?
     e( 56 - 58) =     19.22059  eV     3   --> A_1  L_1       
     e( 56 - 58) =     19.22059  eV     3   --> E    L_3       
     e( 59 - 59) =     19.41251  eV     1   --> A_1  L_1       
     e( 60 - 61) =     19.72622  eV     2   --> E    L_3       
     e( 62 - 63) =     21.60285  eV     2   --> E    L_3       
     e( 64 - 64) =     21.98285  eV     1   -->   ?

 **************************************************************************

 **************************************************************************

                    xk=(   0.00000,   0.00000,   0.18742  )

     Band symmetry, C_3v (3m)   point group:

     e(  1 -  1) =     -8.09256  eV     1   --> A_1  L_1       
     e(  2 -  2) =     -6.18312  eV     1   --> A_1  L_1       
     e(  3 -  5) =     -6.15291  eV     3   --> A_1  L_1       
     e(  3 -  5) =     -6.15291  eV     3   --> E    L_3       
     e(  6 -  8) =     -5.52559  eV     3   --> A_1  L_1       
     e(  6 -  8) =     -5.52559  eV     3   --> E    L_3       
     e(  9 -  9) =      1.23240  eV     1   --> A_1  L_1       
     e( 10 - 12) =      1.34733  eV     3   --> A_1  L_1       
     e( 10 - 12) =      1.34733  eV     3   --> E    L_3       
     e( 13 - 15) =      2.45955  eV     3   --> A_1  L_1       
     e( 13 - 15) =      2.45955  eV     3   --> E    L_3       
     e( 16 - 18) =      3.91910  eV     3   --> A_1  L_1       
     e( 16 - 18) =      3.91910  eV     3   --> E    L_3       
     e( 19 - 21) =      4.92011  eV     3   --> A_2  L_2       
     e( 19 - 21) =      4.92011  eV     3   --> E    L_3       
     e( 22 - 24) =      5.46176  eV     3   --> A_1  L_1       
     e( 22 - 24) =      5.46176  eV     3   --> E    L_3       
     e( 25 - 26) =      6.12976  eV     2   --> E    L_3       
     e( 27 - 29) =      6.17431  eV     3   --> A_2  L_2       
     e( 27 - 29) =      6.17431  eV     3   --> E    L_3       
     e( 30 - 30) =      6.46569  eV     1   --> A_1  L_1       
     e( 31 - 32) =      6.71444  eV     2   --> E    L_3       
     e( 33 - 33) =     11.45762  eV     1   --> A_1  L_1       
     e( 34 - 36) =     12.22879  eV     3   --> A_1  L_1       
     e( 34 - 36) =     12.22879  eV     3   --> E    L_3       
     e( 37 - 39) =     12.68496  eV     3   --> A_1  L_1       
     e( 37 - 39) =     12.68496  eV     3   --> E    L_3       
     e( 40 - 40) =     13.54009  eV     1   --> A_1  L_1       
     e( 41 - 43) =     15.61915  eV     3   --> A_1  L_1       
     e( 41 - 43) =     15.61915  eV     3   --> E    L_3       
     e( 44 - 46) =     16.65738  eV     3   --> A_1  L_1       
     e( 44 - 46) =     16.65738  eV     3   --> E    L_3       
     e( 47 - 47) =     17.28581  eV     1   --> A_1  L_1       
     e( 48 - 49) =     17.94404  eV     2   --> E    L_3       
     e( 50 - 52) =     17.99794  eV     3   --> A_2  L_2       
     e( 50 - 52) =     17.99794  eV     3   --> E    L_3       
     e( 53 - 55) =     19.06791  eV     3   --> A_1  L_1       
     e( 53 - 55) =     19.06791  eV     3   --> E    L_3       
     e( 56 - 56) =     19.11359  eV     1   -->   ?
     e( 57 - 58) =     19.11372  eV     2   -->   ?
     e( 59 - 59) =     19.24103  eV     1   --> A_1  L_1       
     e( 60 - 61) =     19.63619  eV     2   --> E    L_3       
     e( 62 - 63) =     21.71539  eV     2   --> E    L_3       
     e( 64 - 64) =     22.01303  eV     1   -->   ?

 **************************************************************************

 **************************************************************************

                    xk=(   0.00000,   0.00000,   0.21866  )

     Band symmetry, C_3v (3m)   point group:

     e(  1 -  1) =     -8.06151  eV     1   --> A_1  L_1       
     e(  2 -  2) =     -6.24120  eV     1   --> A_1  L_1       
     e(  3 -  5) =     -6.13805  eV     3   --> A_1  L_1       
     e(  3 -  5) =     -6.13805  eV     3   --> E    L_3       
     e(  6 -  8) =     -5.53678  eV     3   --> A_1  L_1       
     e(  6 -  8) =     -5.53678  eV     3   --> E    L_3       
     e(  9 - 11) =      1.31485  eV     3   --> A_1  L_1       
     e(  9 - 11) =      1.31485  eV     3   --> E    L_3       
     e( 12 - 12) =      1.33823  eV     1   --> A_1  L_1       
     e( 13 - 15) =      2.36853  eV     3   --> A_1  L_1       
     e( 13 - 15) =      2.36853  eV     3   --> E    L_3       
     e( 16 - 18) =      4.02199  eV     3   --> A_1  L_1       
     e( 16 - 18) =      4.02199  eV     3   --> E    L_3       
     e( 19 - 21) =      4.94261  eV     3   --> A_2  L_2       
     e( 19 - 21) =      4.94261  eV     3   --> E    L_3       
     e( 22 - 24) =      5.54095  eV     3   --> A_1  L_1       
     e( 22 - 24) =      5.54095  eV     3   --> E    L_3       
     e( 25 - 27) =      6.14122  eV     3   --> A_2  L_2       
     e( 25 - 27) =      6.14122  eV     3   --> E    L_3       
     e( 28 - 29) =      6.14170  eV     2   --> E    L_3       
     e( 30 - 30) =      6.30506  eV     1   --> A_1  L_1       
     e( 31 - 32) =      6.70121  eV     2   --> E    L_3       
     e( 33 - 33) =     11.58521  eV     1   --> A_1  L_1       
     e( 34 - 36) =     12.13098  eV     3   --> A_1  L_1       
     e( 34 - 36) =     12.13098  eV     3   --> E    L_3       
     e( 37 - 39) =     12.69866  eV     3   --> A_1  L_1       
     e( 37 - 39) =     12.69866  eV     3   --> E    L_3       
     e( 40 - 40) =     13.55681  eV     1   --> A_1  L_1       
     e( 41 - 43) =     15.78753  eV     3   --> A_1  L_1       
     e( 41 - 43) =     15.78753  eV     3   --> E    L_3       
     e( 44 - 46) =     16.53094  eV     3   --> A_1  L_1       
     e( 44 - 46) =     16.53094  eV     3   --> E    L_3       
     e( 47 - 47) =     17.24029  eV     1   --> A_1  L_1       
     e( 48 - 49) =     17.93944  eV     2   --> E    L_3       
     e( 50 - 52) =     18.08839  eV     3   --> A_2  L_2       
     e( 50 - 52) =     18.08839  eV     3   --> E    L_3       
     e( 53 - 55) =     18.90486  eV     3   --> A_1  L_1       
     e( 53 - 55) =     18.90486  eV     3   --> E    L_3       
     e( 56 - 56) =     19.06319  eV     1   --> A_1  L_1       
     e( 57 - 57) =     19.13371  eV     1   -->   ?
     e( 58 - 59) =     19.13383  eV     2   -->   ?
     e( 60 - 61) =     19.53816  eV     2   --> E    L_3       
     e( 62 - 63) =     21.84550  eV     2   --> E    L_3       
     e( 64 - 64) =     21.96270  eV     1   -->   ?

 **************************************************************************

 **************************************************************************

                    xk=(   0.00000,   0.00000,   0.24990  )

     Band symmetry, C_3v (3m)   point group:

     e(  1 -  1) =     -8.02586  eV     1   --> A_1  L_1       
     e(  2 -  2) =     -6.30564  eV     1   --> A_1  L_1       
     e(  3 -  5) =     -6.12119  eV     3   --> A_1  L_1       
     e(  3 -  5) =     -6.12119  eV     3   --> E    L_3       
     e(  6 -  8) =     -5.54968  eV     3   --> A_1  L_1       
     e(  6 -  8) =     -5.54968  eV     3   --> E    L_3       
     e(  9 - 11) =      1.28356  eV     3   --> A_1  L_1       
     e(  9 - 11) =      1.28356  eV     3   --> E    L_3       
     e( 12 - 12) =      1.45757  eV     1   --> A_1  L_1       
     e( 13 - 15) =      2.27363  eV     3   --> A_1  L_1       
     e( 13 - 15) =      2.27363  eV     3   --> E    L_3       
     e( 16 - 18) =      4.13371  eV     3   --> A_1  L_1       
     e( 16 - 18) =      4.13371  eV     3   --> E    L_3       
     e( 19 - 21) =      4.96838  eV     3   --> A_2  L_2       
     e( 19 - 21) =      4.96838  eV     3   --> E    L_3       
     e( 22 - 24) =      5.61856  eV     3   --> A_1  L_1       
     e( 22 - 24) =      5.61856  eV     3   --> E    L_3       
     e( 25 - 27) =      6.10405  eV     3   --> A_2  L_2       
     e( 25 - 27) =      6.10405  eV     3   --> E    L_3       
     e( 28 - 28) =      6.13073  eV     1   --> A_1  L_1       
     e( 29 - 30) =      6.15532  eV     2   --> E    L_3       
     e( 31 - 32) =      6.68620  eV     2   --> E    L_3       
     e( 33 - 33) =     11.72127  eV     1   --> A_1  L_1       
     e( 34 - 36) =     12.03924  eV     3   --> A_1  L_1       
     e( 34 - 36) =     12.03924  eV     3   --> E    L_3       
     e( 37 - 39) =     12.71022  eV     3   --> A_1  L_1       
     e( 37 - 39) =     12.71022  eV     3   --> E    L_3       
     e( 40 - 40) =     13.57370  eV     1   --> A_1  L_1       
     e( 41 - 43) =     15.95843  eV     3   --> A_1  L_1       
     e( 41 - 43) =     15.95843  eV     3   --> E    L_3       
     e( 44 - 46) =     16.40261  eV     3   --> A_1  L_1       
     e( 44 - 46) =     16.40261  eV     3   --> E    L_3       
     e( 47 - 47) =     17.19224  eV     1   --> A_1  L_1       
     e( 48 - 49) =     17.93707  eV     2   --> E    L_3       
     e( 50 - 52) =     18.19111  eV     3   --> A_2  L_2       
     e( 50 - 52) =     18.19111  eV     3   --> E    L_3       
     e( 53 - 55) =     18.73753  eV     3   --> A_1  L_1       
     e( 53 - 55) =     18.73753  eV     3   --> E    L_3       
     e( 56 - 56) =     18.88235  eV     1   --> A_1  L_1       
     e( 57 - 57) =     19.14861  eV     1   -->   ?
     e( 58 - 59) =     19.14872  eV     2   -->   ?
     e( 60 - 61) =     19.43460  eV     2   --> E    L_3       
     e( 62 - 64) =     21.87357  eV     3   --> A_2  L_2       
     e( 62 - 64) =     21.87357  eV     3   --> E    L_3       

 **************************************************************************

 **************************************************************************

                    xk=(   0.00000,   0.00000,   0.28114  )

     Band symmetry, C_3v (3m)   point group:

     e(  1 -  1) =     -7.98570  eV     1   --> A_1  L_1       
     e(  2 -  2) =     -6.37556  eV     1   --> A_1  L_1       
     e(  3 -  5) =     -6.10244  eV     3   --> A_1  L_1       
     e(  3 -  5) =     -6.10244  eV     3   --> E    L_3       
     e(  6 -  8) =     -5.56427  eV     3   --> A_1  L_1       
     e(  6 -  8) =     -5.56427  eV     3   --> E    L_3       
     e(  9 - 11) =      1.25483  eV     3   --> A_1  L_1       
     e(  9 - 11) =      1.25483  eV     3   --> E    L_3       
     e( 12 - 12) =      1.58948  eV     1   --> A_1  L_1       
     e( 13 - 15) =      2.17689  eV     3   --> A_1  L_1       
     e( 13 - 15) =      2.17689  eV     3   --> E    L_3       
     e( 16 - 18) =      4.25247  eV     3   --> A_1  L_1       
     e( 16 - 18) =      4.25247  eV     3   --> E    L_3       
     e( 19 - 21) =      4.99732  eV     3   --> A_2  L_2       
     e( 19 - 21) =      4.99732  eV     3   --> E    L_3       
     e( 22 - 24) =      5.69116  eV     3   --> A_1  L_1       
     e( 22 - 24) =      5.69116  eV     3   --> E    L_3       
     e( 25 - 25) =      5.94517  eV     1   --> A_1  L_1       
     e( 26 - 28) =      6.06317  eV     3   --> A_2  L_2       
     e( 26 - 28) =      6.06317  eV     3   --> E    L_3       
     e( 29 - 30) =      6.17054  eV     2   --> E    L_3       
     e( 31 - 32) =      6.66951  eV     2   --> E    L_3       
     e( 33 - 33) =     11.86324  eV     1   --> A_1  L_1       
     e( 34 - 36) =     11.95726  eV     3   --> A_1  L_1       
     e( 34 - 36) =     11.95726  eV     3   --> E    L_3       
     e( 37 - 39) =     12.71765  eV     3   --> A_1  L_1       
     e( 37 - 39) =     12.71765  eV     3   --> E    L_3       
     e( 40 - 40) =     13.58968  eV     1   --> A_1  L_1       
     e( 41 - 43) =     16.12577  eV     3   --> A_1  L_1       
     e( 41 - 43) =     16.12577  eV     3   --> E    L_3       
     e( 44 - 46) =     16.27727  eV     3   --> A_1  L_1       
     e( 44 - 46) =     16.27727  eV     3   --> E    L_3       
     e( 47 - 47) =     17.14348  eV     1   --> A_1  L_1       
     e( 48 - 49) =     17.93774  eV     2   --> E    L_3       
     e( 50 - 52) =     18.30545  eV     3   --> A_2  L_2       
     e( 50 - 52) =     18.30545  eV     3   --> E    L_3       
     e( 53 - 55) =     18.57242  eV     3   --> A_1  L_1       
     e( 53 - 55) =     18.57242  eV     3   --> E    L_3       
     e( 56 - 56) =     18.70107  eV     1   --> A_1  L_1       
     e( 57 - 57) =     19.15702  eV     1   -->   ?
     e( 58 - 59) =     19.15712  eV     2   -->   ?
     e( 60 - 61) =     19.32767  eV     2   --> E    L_3       
     e( 62 - 64) =     21.77290  eV     3   --> A_2  L_2       
     e( 62 - 64) =     21.77290  eV     3   --> E    L_3       

 **************************************************************************

 **************************************************************************

                    xk=(   0.00000,   0.00000,   0.31237  )

     Band symmetry, C_3v (3m)   point group:

     e(  1 -  1) =     -7.94113  eV     1   --> A_1  L_1       
     e(  2 -  2) =     -6.45010  eV     1   --> A_1  L_1       
     e(  3 -  5) =     -6.08194  eV     3   --> A_1  L_1       
     e(  3 -  5) =     -6.08194  eV     3   --> E    L_3       
     e(  6 -  8) =     -5.58055  eV     3   --> A_1  L_1       
     e(  6 -  8) =     -5.58055  eV     3   --> E    L_3       
     e(  9 - 11) =      1.22982  eV     3   --> A_1  L_1       
     e(  9 - 11) =      1.22982  eV     3   --> E    L_3       
     e( 12 - 12) =      1.73298  eV     1   --> A_1  L_1       
     e( 13 - 15) =      2.08000  eV     3   --> A_1  L_1       
     e( 13 - 15) =      2.08000  eV     3   --> E    L_3       
     e( 16 - 18) =      4.37663  eV     3   --> A_1  L_1       
     e( 16 - 18) =      4.37663  eV     3   --> E    L_3       
     e( 19 - 21) =      5.02934  eV     3   --> A_2  L_2       
     e( 19 - 21) =      5.02934  eV     3   --> E    L_3       
     e( 22 - 22) =      5.75054  eV     1   --> A_1  L_1       
     e( 23 - 25) =      5.75563  eV     3   --> A_1  L_1       
     e( 23 - 25) =      5.75563  eV     3   --> E    L_3       
     e( 26 - 28) =      6.01898  eV     3   --> A_2  L_2       
     e( 26 - 28) =      6.01898  eV     3   --> E    L_3       
     e( 29 - 30) =      6.18726  eV     2   --> E    L_3       
     e( 31 - 32) =      6.65127  eV     2   --> E    L_3       
     e( 33 - 35) =     11.88812  eV     3   --> A_1  L_1       
     e( 33 - 35) =     11.88812  eV     3   --> E    L_3       
     e( 36 - 36) =     12.00884  eV     1   --> A_1  L_1       
     e( 37 - 39) =     12.71876  eV     3   --> A_1  L_1       
     e( 37 - 39) =     12.71876  eV     3   --> E    L_3       
     e( 40 - 40) =     13.60347  eV     1   --> A_1  L_1       
     e( 41 - 43) =     16.15971  eV     3   --> A_1  L_1       
     e( 41 - 43) =     16.15971  eV     3   --> E    L_3       
     e( 44 - 46) =     16.28245  eV     3   --> A_1  L_1       
     e( 44 - 46) =     16.28245  eV     3   --> E    L_3       
     e( 47 - 47) =     17.09598  eV     1   --> A_1  L_1       
     e( 48 - 49) =     17.94219  eV     2   --> E    L_3       
     e( 50 - 52) =     18.41710  eV     3   --> A_1  L_1       
     e( 50 - 52) =     18.41710  eV     3   --> E    L_3       
     e( 53 - 55) =     18.43068  eV     3   --> A_2  L_2       
     e( 53 - 55) =     18.43068  eV     3   --> E    L_3       
     e( 56 - 56) =     18.52141  eV     1   --> A_1  L_1       
     e( 57 - 59) =     19.15792  eV     3   --> A_1  L_1       
     e( 57 - 59) =     19.15792  eV     3   --> E    L_3       
     e( 60 - 61) =     19.21924  eV     2   --> E    L_3       
     e( 62 - 64) =     21.66100  eV     3   --> A_2  L_2       
     e( 62 - 64) =     21.66100  eV     3   --> E    L_3       

 **************************************************************************

 **************************************************************************

                    xk=(   0.00000,   0.00000,   0.34361  )

     Band symmetry, C_3v (3m)   point group:

     e(  1 -  1) =     -7.89226  eV     1   --> A_1  L_1       
     e(  2 -  2) =     -6.52841  eV     1   --> A_1  L_1       
     e(  3 -  5) =     -6.05983  eV     3   --> A_1  L_1       
     e(  3 -  5) =     -6.05983  eV     3   --> E    L_3       
     e(  6 -  8) =     -5.59845  eV     3   --> A_1  L_1       
     e(  6 -  8) =     -5.59845  eV     3   --> E    L_3       
     e(  9 - 11) =      1.20949  eV     3   --> A_1  L_1       
     e(  9 - 11) =      1.20949  eV     3   --> E    L_3       
     e( 12 - 12) =      1.88714  eV     1   --> A_1  L_1       
     e( 13 - 15) =      1.98435  eV     3   --> A_1  L_1       
     e( 13 - 15) =      1.98435  eV     3   --> E    L_3       
     e( 16 - 18) =      4.50467  eV     3   --> A_1  L_1       
     e( 16 - 18) =      4.50467  eV     3   --> E    L_3       
     e( 19 - 21) =      5.06432  eV     3   --> A_2  L_2       
     e( 19 - 21) =      5.06432  eV     3   --> E    L_3       
     e( 22 - 22) =      5.54865  eV     1   --> A_1  L_1       
     e( 23 - 25) =      5.80923  eV     3   --> A_1  L_1       
     e( 23 - 25) =      5.80923  eV     3   --> E    L_3       
     e( 26 - 28) =      5.97190  eV     3   --> A_2  L_2       
     e( 26 - 28) =      5.97190  eV     3   --> E    L_3       
     e( 29 - 30) =      6.20543  eV     2   --> E    L_3       
     e( 31 - 32) =      6.63159  eV     2   --> E    L_3       
     e( 33 - 35) =     11.83431  eV     3   --> A_1  L_1       
     e( 33 - 35) =     11.83431  eV     3   --> E    L_3       
     e( 36 - 36) =     12.15609  eV     1   --> A_1  L_1       
     e( 37 - 39) =     12.71120  eV     3   --> A_1  L_1       
     e( 37 - 39) =     12.71120  eV     3   --> E    L_3       
     e( 40 - 40) =     13.61360  eV     1   --> A_1  L_1       
     e( 41 - 43) =     16.05457  eV     3   --> A_1  L_1       
     e( 41 - 43) =     16.05457  eV     3   --> E    L_3       
     e( 44 - 46) =     16.41944  eV     3   --> A_1  L_1       
     e( 44 - 46) =     16.41944  eV     3   --> E    L_3       
     e( 47 - 47) =     17.05189  eV     1   --> A_1  L_1       
     e( 48 - 49) =     17.95107  eV     2   --> E    L_3       
     e( 50 - 52) =     18.28092  eV     3   --> A_1  L_1       
     e( 50 - 52) =     18.28092  eV     3   --> E    L_3       
     e( 53 - 53) =     18.34509  eV     1   --> A_1  L_1       
     e( 54 - 56) =     18.56601  eV     3   --> A_2  L_2       
     e( 54 - 56) =     18.56601  eV     3   --> E    L_3       
     e( 57 - 58) =     19.11085  eV     2   --> E    L_3       
     e( 59 - 61) =     19.15051  eV     3   --> A_1  L_1       
     e( 59 - 61) =     19.15051  eV     3   --> E    L_3       
     e( 62 - 64) =     21.53832  eV     3   --> A_2  L_2       
     e( 62 - 64) =     21.53832  eV     3   --> E    L_3       

 **************************************************************************

 **************************************************************************

                    xk=(   0.00000,   0.00000,   0.37485  )

     Band symmetry, C_3v (3m)   point group:

     e(  1 -  1) =     -7.83921  eV     1   --> A_1  L_1       
     e(  2 -  2) =     -6.60968  eV     1   --> A_1  L_1       
     e(  3 -  5) =     -6.03627  eV     3   --> A_1  L_1       
     e(  3 -  5) =     -6.03627  eV     3   --> E    L_3       
     e(  6 -  8) =     -5.61792  eV     3   --> A_1  L_1       
     e(  6 -  8) =     -5.61792  eV     3   --> E    L_3       
     e(  9 - 11) =      1.19464  eV     3   --> A_1  L_1       
     e(  9 - 11) =      1.19464  eV     3   --> E    L_3       
     e( 12 - 14) =      1.89113  eV     3   --> A_1  L_1       
     e( 12 - 14) =      1.89113  eV     3   --> E    L_3       
     e( 15 - 15) =      2.05102  eV     1   --> A_1  L_1       
     e( 16 - 18) =      4.63511  eV     3   --> A_1  L_1       
     e( 16 - 18) =      4.63511  eV     3   --> E    L_3       
     e( 19 - 21) =      5.10214  eV     3   --> A_2  L_2       
     e( 19 - 21) =      5.10214  eV     3   --> E    L_3       
     e( 22 - 22) =      5.34111  eV     1   --> A_1  L_1       
     e( 23 - 25) =      5.84960  eV     3   --> A_1  L_1       
     e( 23 - 25) =      5.84960  eV     3   --> E    L_3       
     e( 26 - 28) =      5.92235  eV     3   --> A_2  L_2       
     e( 26 - 28) =      5.92235  eV     3   --> E    L_3       
     e( 29 - 30) =      6.22492  eV     2   --> E    L_3       
     e( 31 - 32) =      6.61062  eV     2   --> E    L_3       
     e( 33 - 35) =     11.79775  eV     3   --> A_1  L_1       
     e( 33 - 35) =     11.79775  eV     3   --> E    L_3       
     e( 36 - 36) =     12.30322  eV     1   --> A_1  L_1       
     e( 37 - 39) =     12.69275  eV     3   --> A_1  L_1       
     e( 37 - 39) =     12.69275  eV     3   --> E    L_3       
     e( 40 - 40) =     13.61852  eV     1   --> A_1  L_1       
     e( 41 - 43) =     15.96616  eV     3   --> A_1  L_1       
     e( 41 - 43) =     15.96616  eV     3   --> E    L_3       
     e( 44 - 46) =     16.52538  eV     3   --> A_1  L_1       
     e( 44 - 46) =     16.52538  eV     3   --> E    L_3       
     e( 47 - 47) =     17.01344  eV     1   --> A_1  L_1       
     e( 48 - 49) =     17.96493  eV     2   --> E    L_3       
     e( 50 - 50) =     18.17369  eV     1   --> A_1  L_1       
     e( 51 - 53) =     18.17550  eV     3   --> A_1  L_1       
     e( 51 - 53) =     18.17550  eV     3   --> E    L_3       
     e( 54 - 56) =     18.71058  eV     3   --> A_2  L_2       
     e( 54 - 56) =     18.71058  eV     3   --> E    L_3       
     e( 57 - 58) =     19.00380  eV     2   --> E    L_3       
     e( 59 - 61) =     19.13412  eV     3   --> A_1  L_1       
     e( 59 - 61) =     19.13412  eV     3   --> E    L_3       
     e( 62 - 64) =     21.40539  eV     3   --> A_2  L_2       
     e( 62 - 64) =     21.40539  eV     3   --> E    L_3       

 **************************************************************************

 **************************************************************************

                    xk=(   0.00000,   0.00000,   0.40609  )

     Band symmetry, C_3v (3m)   point group:

     e(  1 -  1) =     -7.78213  eV     1   --> A_1  L_1       
     e(  2 -  2) =     -6.69316  eV     1   --> A_1  L_1       
     e(  3 -  5) =     -6.01143  eV     3   --> A_1  L_1       
     e(  3 -  5) =     -6.01143  eV     3   --> E    L_3       
     e(  6 -  8) =     -5.63890  eV     3   --> A_1  L_1       
     e(  6 -  8) =     -5.63890  eV     3   --> E    L_3       
     e(  9 - 11) =      1.18588  eV     3   --> A_1  L_1       
     e(  9 - 11) =      1.18588  eV     3   --> E    L_3       
     e( 12 - 14) =      1.80131  eV     3   --> A_1  L_1       
     e( 12 - 14) =      1.80131  eV     3   --> E    L_3       
     e( 15 - 15) =      2.22372  eV     1   --> A_1  L_1       
     e( 16 - 18) =      4.76655  eV     3   --> A_1  L_1       
     e( 16 - 18) =      4.76655  eV     3   --> E    L_3       
     e( 19 - 19) =      5.12925  eV     1   --> A_1  L_1       
     e( 20 - 22) =      5.14265  eV     3   --> A_2  L_2       
     e( 20 - 22) =      5.14265  eV     3   --> E    L_3       
     e( 23 - 25) =      5.87075  eV     3   --> A_2  L_2       
     e( 23 - 25) =      5.87075  eV     3   --> E    L_3       
     e( 26 - 28) =      5.87490  eV     3   --> A_1  L_1       
     e( 26 - 28) =      5.87490  eV     3   --> E    L_3       
     e( 29 - 30) =      6.24564  eV     2   --> E    L_3       
     e( 31 - 32) =      6.58850  eV     2   --> E    L_3       
     e( 33 - 35) =     11.77971  eV     3   --> A_1  L_1       
     e( 33 - 35) =     11.77971  eV     3   --> E    L_3       
     e( 36 - 36) =     12.44861  eV     1   --> A_1  L_1       
     e( 37 - 39) =     12.66158  eV     3   --> A_1  L_1       
     e( 37 - 39) =     12.66158  eV     3   --> E    L_3       
     e( 40 - 40) =     13.61655  eV     1   --> A_1  L_1       
     e( 41 - 43) =     15.89821  eV     3   --> A_1  L_1       
     e( 41 - 43) =     15.89821  eV     3   --> E    L_3       
     e( 44 - 46) =     16.58800  eV     3   --> A_1  L_1       
     e( 44 - 46) =     16.58800  eV     3   --> E    L_3       
     e( 47 - 47) =     16.98287  eV     1   --> A_1  L_1       
     e( 48 - 49) =     17.98423  eV     2   --> E    L_3       
     e( 50 - 50) =     18.00860  eV     1   --> A_1  L_1       
     e( 51 - 53) =     18.11320  eV     3   --> A_1  L_1       
     e( 51 - 53) =     18.11320  eV     3   --> E    L_3       
     e( 54 - 56) =     18.86348  eV     3   --> A_2  L_2       
     e( 54 - 56) =     18.86348  eV     3   --> E    L_3       
     e( 57 - 58) =     18.89918  eV     2   --> E    L_3       
     e( 59 - 61) =     19.10815  eV     3   --> A_1  L_1       
     e( 59 - 61) =     19.10815  eV     3   --> E    L_3       
     e( 62 - 64) =     21.26291  eV     3   --> A_2  L_2       
     e( 62 - 64) =     21.26291  eV     3   --> E    L_3       

 **************************************************************************

 **************************************************************************

                    xk=(   0.00000,   0.00000,   0.43732  )

     Band symmetry, C_3v (3m)   point group:

     e(  1 -  1) =     -7.72116  eV     1   --> A_1  L_1       
     e(  2 -  2) =     -6.77811  eV     1   --> A_1  L_1       
     e(  3 -  5) =     -5.98550  eV     3   --> A_1  L_1       
     e(  3 -  5) =     -5.98550  eV     3   --> E    L_3       
     e(  6 -  8) =     -5.66129  eV     3   --> A_1  L_1       
     e(  6 -  8) =     -5.66129  eV     3   --> E    L_3       
     e(  9 - 11) =      1.18372  eV     3   --> A_1  L_1       
     e(  9 - 11) =      1.18372  eV     3   --> E    L_3       
     e( 12 - 14) =      1.71570  eV     3   --> A_1  L_1       
     e( 12 - 14) =      1.71570  eV     3   --> E    L_3       
     e( 15 - 15) =      2.40437  eV     1   --> A_1  L_1       
     e( 16 - 18) =      4.89757  eV     3   --> A_1  L_1       
     e( 16 - 18) =      4.89757  eV     3   --> E    L_3       
     e( 19 - 19) =      4.91427  eV     1   --> A_1  L_1       
     e( 20 - 22) =      5.18570  eV     3   --> A_2  L_2       
     e( 20 - 22) =      5.18570  eV     3   --> E    L_3       
     e( 23 - 25) =      5.81753  eV     3   --> A_2  L_2       
     e( 23 - 25) =      5.81753  eV     3   --> E    L_3       
     e( 26 - 28) =      5.88383  eV     3   --> A_1  L_1       
     e( 26 - 28) =      5.88383  eV     3   --> E    L_3       
     e( 29 - 30) =      6.26747  eV     2   --> E    L_3       
     e( 31 - 32) =      6.56538  eV     2   --> E    L_3       
     e( 33 - 35) =     11.78079  eV     3   --> A_1  L_1       
     e( 33 - 35) =     11.78079  eV     3   --> E    L_3       
     e( 36 - 36) =     12.59077  eV     1   --> A_1  L_1       
     e( 37 - 39) =     12.61662  eV     3   --> A_1  L_1       
     e( 37 - 39) =     12.61662  eV     3   --> E    L_3       
     e( 40 - 40) =     13.60605  eV     1   --> A_1  L_1       
     e( 41 - 43) =     15.85353  eV     3   --> A_1  L_1       
     e( 41 - 43) =     15.85353  eV     3   --> E    L_3       
     e( 44 - 46) =     16.59944  eV     3   --> A_1  L_1       
     e( 44 - 46) =     16.59944  eV     3   --> E    L_3       
     e( 47 - 47) =     16.96239  eV     1   --> A_1  L_1       
     e( 48 - 48) =     17.85119  eV     1   --> A_1  L_1       
     e( 49 - 50) =     18.00935  eV     2   --> E    L_3       
     e( 51 - 53) =     18.10196  eV     3   --> A_1  L_1       
     e( 51 - 53) =     18.10196  eV     3   --> E    L_3       
     e( 54 - 55) =     18.79787  eV     2   --> E    L_3       
     e( 56 - 58) =     19.02375  eV     3   --> A_2  L_2       
     e( 56 - 58) =     19.02375  eV     3   --> E    L_3       
     e( 59 - 61) =     19.07210  eV     3   --> A_1  L_1       
     e( 59 - 61) =     19.07210  eV     3   --> E    L_3       
     e( 62 - 64) =     21.11171  eV     3   --> A_2  L_2       
     e( 62 - 64) =     21.11171  eV     3   --> E    L_3       

 **************************************************************************

 **************************************************************************

                    xk=(   0.00000,   0.00000,   0.46856  )

     Band symmetry, C_3v (3m)   point group:

     e(  1 -  1) =     -7.65650  eV     1   --> A_1  L_1       
     e(  2 -  2) =     -6.86389  eV     1   --> A_1  L_1       
     e(  3 -  5) =     -5.95866  eV     3   --> A_1  L_1       
     e(  3 -  5) =     -5.95866  eV     3   --> E    L_3       
     e(  6 -  8) =     -5.68498  eV     3   --> A_1  L_1       
     e(  6 -  8) =     -5.68498  eV     3   --> E    L_3       
     e(  9 - 11) =      1.18852  eV     3   --> A_1  L_1       
     e(  9 - 11) =      1.18852  eV     3   --> E    L_3       
     e( 12 - 14) =      1.63501  eV     3   --> A_1  L_1       
     e( 12 - 14) =      1.63501  eV     3   --> E    L_3       
     e( 15 - 15) =      2.59216  eV     1   --> A_1  L_1       
     e( 16 - 16) =      4.69721  eV     1   --> A_1  L_1       
     e( 17 - 19) =      5.02677  eV     3   --> A_1  L_1       
     e( 17 - 19) =      5.02677  eV     3   --> E    L_3       
     e( 20 - 22) =      5.23110  eV     3   --> A_2  L_2       
     e( 20 - 22) =      5.23110  eV     3   --> E    L_3       
     e( 23 - 25) =      5.76310  eV     3   --> A_2  L_2       
     e( 23 - 25) =      5.76310  eV     3   --> E    L_3       
     e( 26 - 28) =      5.87566  eV     3   --> A_1  L_1       
     e( 26 - 28) =      5.87566  eV     3   --> E    L_3       
     e( 29 - 30) =      6.29029  eV     2   --> E    L_3       
     e( 31 - 32) =      6.54141  eV     2   --> E    L_3       
     e( 33 - 35) =     11.80086  eV     3   --> A_1  L_1       
     e( 33 - 35) =     11.80086  eV     3   --> E    L_3       
     e( 36 - 38) =     12.55785  eV     3   --> A_1  L_1       
     e( 36 - 38) =     12.55785  eV     3   --> E    L_3       
     e( 39 - 39) =     12.72827  eV     1   --> A_1  L_1       
     e( 40 - 40) =     13.58549  eV     1   --> A_1  L_1       
     e( 41 - 43) =     15.83376  eV     3   --> A_1  L_1       
     e( 41 - 43) =     15.83376  eV     3   --> E    L_3       
     e( 44 - 46) =     16.56212  eV     3   --> A_1  L_1       
     e( 44 - 46) =     16.56212  eV     3   --> E    L_3       
     e( 47 - 47) =     16.95403  eV     1   --> A_1  L_1       
     e( 48 - 48) =     17.70277  eV     1   --> A_1  L_1       
     e( 49 - 50) =     18.04057  eV     2   --> E    L_3       
     e( 51 - 53) =     18.13939  eV     3   --> A_1  L_1       
     e( 51 - 53) =     18.13939  eV     3   --> E    L_3       
     e( 54 - 55) =     18.70062  eV     2   --> E    L_3       
     e( 56 - 58) =     19.02552  eV     3   --> A_1  L_1       
     e( 56 - 58) =     19.02552  eV     3   --> E    L_3       
     e( 59 - 61) =     19.19038  eV     3   --> A_2  L_2       
     e( 59 - 61) =     19.19038  eV     3   --> E    L_3       
     e( 62 - 64) =     20.95271  eV     3   --> A_2  L_2       
     e( 62 - 64) =     20.95271  eV     3   --> E    L_3       

 **************************************************************************

 **************************************************************************

                    xk=(   0.00000,   0.00000,   0.49980  )

     Band symmetry, C_3v (3m)   point group:

     e(  1 -  1) =     -7.58835  eV     1   --> A_1  L_1       
     e(  2 -  2) =     -6.94989  eV     1   --> A_1  L_1       
     e(  3 -  5) =     -5.93112  eV     3   --> A_1  L_1       
     e(  3 -  5) =     -5.93112  eV     3   --> E    L_3       
     e(  6 -  8) =     -5.70984  eV     3   --> A_1  L_1       
     e(  6 -  8) =     -5.70984  eV     3   --> E    L_3       
     e(  9 - 11) =      1.20053  eV     3   --> A_1  L_1       
     e(  9 - 11) =      1.20053  eV     3   --> E    L_3       
     e( 12 - 14) =      1.55982  eV     3   --> A_1  L_1       
     e( 12 - 14) =      1.55982  eV     3   --> E    L_3       
     e( 15 - 15) =      2.78628  eV     1   --> A_1  L_1       
     e( 16 - 16) =      4.47900  eV     1   --> A_1  L_1       
     e( 17 - 19) =      5.15268  eV     3   --> A_1  L_1       
     e( 17 - 19) =      5.15268  eV     3   --> E    L_3       
     e( 20 - 22) =      5.27867  eV     3   --> A_2  L_2       
     e( 20 - 22) =      5.27867  eV     3   --> E    L_3       
     e( 23 - 25) =      5.70785  eV     3   --> A_2  L_2       
     e( 23 - 25) =      5.70785  eV     3   --> E    L_3       
     e( 26 - 28) =      5.85031  eV     3   --> A_1  L_1       
     e( 26 - 28) =      5.85031  eV     3   --> E    L_3       
     e( 29 - 30) =      6.31396  eV     2   --> E    L_3       
     e( 31 - 32) =      6.51673  eV     2   --> E    L_3       
     e( 33 - 35) =     11.83901  eV     3   --> A_1  L_1       
     e( 33 - 35) =     11.83901  eV     3   --> E    L_3       
     e( 36 - 38) =     12.48642  eV     3   --> A_1  L_1       
     e( 36 - 38) =     12.48642  eV     3   --> E    L_3       
     e( 39 - 39) =     12.85976  eV     1   --> A_1  L_1       
     e( 40 - 40) =     13.55358  eV     1   --> A_1  L_1       
     e( 41 - 43) =     15.83924  eV     3   --> A_1  L_1       
     e( 41 - 43) =     15.83924  eV     3   --> E    L_3       
     e( 44 - 46) =     16.48800  eV     3   --> A_1  L_1       
     e( 44 - 46) =     16.48800  eV     3   --> E    L_3       
     e( 47 - 47) =     16.95951  eV     1   --> A_1  L_1       
     e( 48 - 48) =     17.56461  eV     1   --> A_1  L_1       
     e( 49 - 50) =     18.07809  eV     2   --> E    L_3       
     e( 51 - 53) =     18.21364  eV     3   --> A_1  L_1       
     e( 51 - 53) =     18.21364  eV     3   --> E    L_3       
     e( 54 - 55) =     18.60804  eV     2   --> E    L_3       
     e( 56 - 58) =     18.96808  eV     3   --> A_1  L_1       
     e( 56 - 58) =     18.96808  eV     3   --> E    L_3       
     e( 59 - 61) =     19.36229  eV     3   --> A_2  L_2       
     e( 59 - 61) =     19.36229  eV     3   --> E    L_3       
     e( 62 - 64) =     20.78697  eV     3   --> A_2  L_2       
     e( 62 - 64) =     20.78697  eV     3   --> E    L_3       

 **************************************************************************

 **************************************************************************

                    xk=(   0.00000,   0.00000,   0.53103  )

     Band symmetry, C_3v (3m)   point group:

     e(  1 -  1) =     -7.51691  eV     1   --> A_1  L_1       
     e(  2 -  2) =     -7.03554  eV     1   --> A_1  L_1       
     e(  3 -  5) =     -5.90307  eV     3   --> A_1  L_1       
     e(  3 -  5) =     -5.90307  eV     3   --> E    L_3       
     e(  6 -  8) =     -5.73574  eV     3   --> A_1  L_1       
     e(  6 -  8) =     -5.73574  eV     3   --> E    L_3       
     e(  9 - 11) =      1.21994  eV     3   --> A_1  L_1       
     e(  9 - 11) =      1.21994  eV     3   --> E    L_3       
     e( 12 - 14) =      1.49063  eV     3   --> A_1  L_1       
     e( 12 - 14) =      1.49063  eV     3   --> E    L_3       
     e( 15 - 15) =      2.98596  eV     1   --> A_1  L_1       
     e( 16 - 16) =      4.26051  eV     1   --> A_1  L_1       
     e( 17 - 19) =      5.27378  eV     3   --> A_1  L_1       
     e( 17 - 19) =      5.27378  eV     3   --> E    L_3       
     e( 20 - 22) =      5.32819  eV     3   --> A_2  L_2       
     e( 20 - 22) =      5.32819  eV     3   --> E    L_3       
     e( 23 - 25) =      5.65217  eV     3   --> A_2  L_2       
     e( 23 - 25) =      5.65217  eV     3   --> E    L_3       
     e( 26 - 28) =      5.80821  eV     3   --> A_1  L_1       
     e( 26 - 28) =      5.80821  eV     3   --> E    L_3       
     e( 29 - 30) =      6.33835  eV     2   --> E    L_3       
     e( 31 - 32) =      6.49154  eV     2   --> E    L_3       
     e( 33 - 35) =     11.89362  eV     3   --> A_1  L_1       
     e( 33 - 35) =     11.89362  eV     3   --> E    L_3       
     e( 36 - 38) =     12.40460  eV     3   --> A_1  L_1       
     e( 36 - 38) =     12.40460  eV     3   --> E    L_3       
     e( 39 - 39) =     12.98390  eV     1   --> A_1  L_1       
     e( 40 - 40) =     13.50934  eV     1   --> A_1  L_1       
     e( 41 - 43) =     15.86904  eV     3   --> A_1  L_1       
     e( 41 - 43) =     15.86904  eV     3   --> E    L_3       
     e( 44 - 46) =     16.39180  eV     3   --> A_1  L_1       
     e( 44 - 46) =     16.39180  eV     3   --> E    L_3       
     e( 47 - 47) =     16.98016  eV     1   --> A_1  L_1       
     e( 48 - 48) =     17.43799  eV     1   --> A_1  L_1       
     e( 49 - 50) =     18.12207  eV     2   --> E    L_3       
     e( 51 - 53) =     18.31027  eV     3   --> A_1  L_1       
     e( 51 - 53) =     18.31027  eV     3   --> E    L_3       
     e( 54 - 55) =     18.52061  eV     2   --> E    L_3       
     e( 56 - 58) =     18.89964  eV     3   --> A_1  L_1       
     e( 56 - 58) =     18.89964  eV     3   --> E    L_3       
     e( 59 - 61) =     19.53839  eV     3   --> A_2  L_2       
     e( 59 - 61) =     19.53839  eV     3   --> E    L_3       
     e( 62 - 64) =     20.61561  eV     3   --> A_2  L_2       
     e( 62 - 64) =     20.61561  eV     3   --> E    L_3       

 **************************************************************************

 **************************************************************************

                    xk=(   0.00000,   0.00000,   0.56227  )

     Band symmetry, C_3v (3m)   point group:

     e(  1 -  1) =     -7.44245  eV     1   --> A_1  L_1       
     e(  2 -  2) =     -7.12034  eV     1   --> A_1  L_1       
     e(  3 -  5) =     -5.87473  eV     3   --> A_1  L_1       
     e(  3 -  5) =     -5.87473  eV     3   --> E    L_3       
     e(  6 -  8) =     -5.76252  eV     3   --> A_1  L_1       
     e(  6 -  8) =     -5.76252  eV     3   --> E    L_3       
     e(  9 - 11) =      1.24681  eV     3   --> A_1  L_1       
     e(  9 - 11) =      1.24681  eV     3   --> E    L_3       
     e( 12 - 14) =      1.42786  eV     3   --> A_1  L_1       
     e( 12 - 14) =      1.42786  eV     3   --> E    L_3       
     e( 15 - 15) =      3.19047  eV     1   --> A_1  L_1       
     e( 16 - 16) =      4.04254  eV     1   --> A_1  L_1       
     e( 17 - 19) =      5.37944  eV     3   --> A_2  L_2       
     e( 17 - 19) =      5.37944  eV     3   --> E    L_3       
     e( 20 - 22) =      5.38851  eV     3   --> A_1  L_1       
     e( 20 - 22) =      5.38851  eV     3   --> E    L_3       
     e( 23 - 25) =      5.59642  eV     3   --> A_2  L_2       
     e( 23 - 25) =      5.59642  eV     3   --> E    L_3       
     e( 26 - 28) =      5.75027  eV     3   --> A_1  L_1       
     e( 26 - 28) =      5.75027  eV     3   --> E    L_3       
     e( 29 - 30) =      6.36333  eV     2   --> E    L_3       
     e( 31 - 32) =      6.46598  eV     2   --> E    L_3       
     e( 33 - 35) =     11.96241  eV     3   --> A_1  L_1       
     e( 33 - 35) =     11.96241  eV     3   --> E    L_3       
     e( 36 - 38) =     12.31552  eV     3   --> A_1  L_1       
     e( 36 - 38) =     12.31552  eV     3   --> E    L_3       
     e( 39 - 39) =     13.09938  eV     1   --> A_1  L_1       
     e( 40 - 40) =     13.45226  eV     1   --> A_1  L_1       
     e( 41 - 43) =     15.92119  eV     3   --> A_1  L_1       
     e( 41 - 43) =     15.92119  eV     3   --> E    L_3       
     e( 44 - 46) =     16.28604  eV     3   --> A_1  L_1       
     e( 44 - 46) =     16.28604  eV     3   --> E    L_3       
     e( 47 - 47) =     17.01682  eV     1   --> A_1  L_1       
     e( 48 - 48) =     17.32412  eV     1   --> A_1  L_1       
     e( 49 - 50) =     18.17255  eV     2   --> E    L_3       
     e( 51 - 53) =     18.41734  eV     3   --> A_1  L_1       
     e( 51 - 53) =     18.41734  eV     3   --> E    L_3       
     e( 54 - 55) =     18.43877  eV     2   --> E    L_3       
     e( 56 - 58) =     18.82034  eV     3   --> A_1  L_1       
     e( 56 - 58) =     18.82034  eV     3   --> E    L_3       
     e( 59 - 61) =     19.71750  eV     3   --> A_2  L_2       
     e( 59 - 61) =     19.71750  eV     3   --> E    L_3       
     e( 62 - 64) =     20.43983  eV     3   --> A_2  L_2       
     e( 62 - 64) =     20.43983  eV     3   --> E    L_3       

 **************************************************************************

 **************************************************************************

                    xk=(   0.00000,   0.00000,   0.59351  )

     Band symmetry, C_3v (3m)   point group:

     e(  1 -  1) =     -7.36524  eV     1   --> A_1  L_1       
     e(  2 -  2) =     -7.20382  eV     1   --> A_1  L_1       
     e(  3 -  5) =     -5.84630  eV     3   --> A_1  L_1       
     e(  3 -  5) =     -5.84630  eV     3   --> E    L_3       
     e(  6 -  8) =     -5.78999  eV     3   --> A_1  L_1       
     e(  6 -  8) =     -5.78999  eV     3   --> E    L_3       
     e(  9 - 11) =      1.28115  eV     3   --> A_1  L_1       
     e(  9 - 11) =      1.28115  eV     3   --> E    L_3       
     e( 12 - 14) =      1.37185  eV     3   --> A_1  L_1       
     e( 12 - 14) =      1.37185  eV     3   --> E    L_3       
     e( 15 - 15) =      3.39909  eV     1   --> A_1  L_1       
     e( 16 - 16) =      3.82583  eV     1   --> A_1  L_1       
     e( 17 - 19) =      5.43216  eV     3   --> A_2  L_2       
     e( 17 - 19) =      5.43216  eV     3   --> E    L_3       
     e( 20 - 22) =      5.49520  eV     3   --> A_1  L_1       
     e( 20 - 22) =      5.49520  eV     3   --> E    L_3       
     e( 23 - 25) =      5.54095  eV     3   --> A_2  L_2       
     e( 23 - 25) =      5.54095  eV     3   --> E    L_3       
     e( 26 - 28) =      5.67776  eV     3   --> A_1  L_1       
     e( 26 - 28) =      5.67776  eV     3   --> E    L_3       
     e( 29 - 30) =      6.38873  eV     2   --> E    L_3       
     e( 31 - 32) =      6.44022  eV     2   --> E    L_3       
     e( 33 - 35) =     12.04250  eV     3   --> A_1  L_1       
     e( 33 - 35) =     12.04250  eV     3   --> E    L_3       
     e( 36 - 38) =     12.22286  eV     3   --> A_1  L_1       
     e( 36 - 38) =     12.22286  eV     3   --> E    L_3       
     e( 39 - 39) =     13.20498  eV     1   --> A_1  L_1       
     e( 40 - 40) =     13.38223  eV     1   --> A_1  L_1       
     e( 41 - 43) =     15.99286  eV     3   --> A_1  L_1       
     e( 41 - 43) =     15.99286  eV     3   --> E    L_3       
     e( 44 - 46) =     16.18002  eV     3   --> A_1  L_1       
     e( 44 - 46) =     16.18002  eV     3   --> E    L_3       
     e( 47 - 47) =     17.06985  eV     1   --> A_1  L_1       
     e( 48 - 48) =     17.22416  eV     1   --> A_1  L_1       
     e( 49 - 50) =     18.22956  eV     2   --> E    L_3       
     e( 51 - 52) =     18.36282  eV     2   --> E    L_3       
     e( 53 - 55) =     18.52644  eV     3   --> A_1  L_1       
     e( 53 - 55) =     18.52644  eV     3   --> E    L_3       
     e( 56 - 58) =     18.73075  eV     3   --> A_1  L_1       
     e( 56 - 58) =     18.73075  eV     3   --> E    L_3       
     e( 59 - 61) =     19.89845  eV     3   --> A_2  L_2       
     e( 59 - 61) =     19.89845  eV     3   --> E    L_3       
     e( 62 - 64) =     20.26087  eV     3   --> A_2  L_2       
     e( 62 - 64) =     20.26087  eV     3   --> E    L_3       

 **************************************************************************

 **************************************************************************

                    xk=(   0.00000,   0.00000,   0.62475  )

     Band symmetry, C_3v (3m)   point group:

     e(  1 -  2) =     -7.28561  eV     2   -->   2 A_1  L_1       
     e(  3 -  8) =     -5.81801  eV     6   -->   2 A_1  L_1       
     e(  3 -  8) =     -5.81801  eV     6   -->   2 E    L_3       
     e(  9 - 14) =      1.32286  eV     6   -->   2 A_1  L_1       
     e(  9 - 14) =      1.32286  eV     6   -->   2 E    L_3       
     e( 15 - 16) =      3.61109  eV     2   -->   2 A_1  L_1       
     e( 17 - 22) =      5.48607  eV     6   -->   2 A_2  L_2       
     e( 17 - 22) =      5.48607  eV     6   -->   2 E    L_3       
     e( 23 - 28) =      5.59218  eV     6   -->   2 A_1  L_1       
     e( 23 - 28) =      5.59218  eV     6   -->   2 E    L_3       
     e( 29 - 32) =      6.41440  eV     4   -->   2 E    L_3       
     e( 33 - 38) =     12.13054  eV     6   -->   2 A_1  L_1       
     e( 33 - 38) =     12.13054  eV     6   -->   2 E    L_3       
     e( 39 - 40) =     13.29955  eV     2   -->   2 A_1  L_1       
     e( 41 - 46) =     16.08052  eV     6   -->   2 A_1  L_1       
     e( 41 - 46) =     16.08052  eV     6   -->   2 E    L_3       
     e( 47 - 48) =     17.13911  eV     2   -->   2 A_1  L_1       
     e( 49 - 52) =     18.29300  eV     4   -->   2 E    L_3       
     e( 53 - 58) =     18.63206  eV     6   -->   2 A_1  L_1       
     e( 53 - 58) =     18.63206  eV     6   -->   2 E    L_3       
     e( 59 - 64) =     20.07992  eV     6   -->   2 A_2  L_2       
     e( 59 - 64) =     20.07992  eV     6   -->   2 E    L_3       

 **************************************************************************

 **************************************************************************

                    xk=(   0.03333,  -0.00000,   0.62475  )

     point group C_1 (1)    
     there are  1 classes
     the character table:

       E    
A      1.00

     the symmetry operations in each class and the name of the first element:

     E        1
                                                                 

     Band symmetry, C_1 (1)     point group:

     e(  1 -  2) =     -7.28325  eV     2   -->   2 A              
     e(  3 -  6) =     -5.82080  eV     4   -->   4 A              
     e(  7 -  8) =     -5.81695  eV     2   -->   2 A              
     e(  9 - 10) =      1.32581  eV     2   -->   2 A              
     e( 11 - 14) =      1.32916  eV     4   -->   4 A              
     e( 15 - 16) =      3.61064  eV     2   -->   2 A              
     e( 17 - 18) =      5.43138  eV     2   -->   2 A              
     e( 19 - 22) =      5.47002  eV     4   -->   4 A              
     e( 23 - 26) =      5.60520  eV     4   -->   4 A              
     e( 27 - 28) =      5.63601  eV     2   -->   2 A              
     e( 29 - 30) =      6.40564  eV     2   -->   2 A              
     e( 31 - 32) =      6.41219  eV     2   -->   2 A              
     e( 33 - 36) =     12.13694  eV     4   -->   4 A              
     e( 37 - 38) =     12.14146  eV     2   -->   2 A              
     e( 39 - 40) =     13.30752  eV     2   -->   2 A              
     e( 41 - 44) =     16.08453  eV     4   -->   4 A              
     e( 45 - 46) =     16.08534  eV     2   -->   2 A              
     e( 47 - 48) =     17.11794  eV     2   -->   2 A              
     e( 49 - 50) =     18.29949  eV     2   -->   2 A              
     e( 51 - 52) =     18.30485  eV     2   -->   2 A              
     e( 53 - 54) =     18.60800  eV     2   -->   2 A              
     e( 55 - 58) =     18.62503  eV     4   -->   4 A              
     e( 59 - 62) =     20.08393  eV     4   -->   4 A              
     e( 63 - 64) =     20.09579  eV     2   -->   2 A              

 **************************************************************************

 **************************************************************************

                    xk=(   0.06667,  -0.00000,   0.62475  )

     Band symmetry, C_1 (1)     point group:

     e(  1 -  2) =     -7.27622  eV     2   -->   2 A              
     e(  3 -  6) =     -5.82913  eV     4   -->   4 A              
     e(  7 -  8) =     -5.81381  eV     2   -->   2 A              
     e(  9 - 10) =      1.33453  eV     2   -->   2 A              
     e( 11 - 14) =      1.34798  eV     4   -->   4 A              
     e( 15 - 16) =      3.60920  eV     2   -->   2 A              
     e( 17 - 18) =      5.33414  eV     2   -->   2 A              
     e( 19 - 22) =      5.43436  eV     4   -->   4 A              
     e( 23 - 26) =      5.63179  eV     4   -->   4 A              
     e( 27 - 28) =      5.70092  eV     2   -->   2 A              
     e( 29 - 30) =      6.37964  eV     2   -->   2 A              
     e( 31 - 32) =      6.40543  eV     2   -->   2 A              
     e( 33 - 36) =     12.15605  eV     4   -->   4 A              
     e( 37 - 38) =     12.17367  eV     2   -->   2 A              
     e( 39 - 40) =     13.33098  eV     2   -->   2 A              
     e( 41 - 44) =     16.09638  eV     4   -->   4 A              
     e( 45 - 46) =     16.09922  eV     2   -->   2 A              
     e( 47 - 48) =     17.05812  eV     2   -->   2 A              
     e( 49 - 50) =     18.31884  eV     2   -->   2 A              
     e( 51 - 52) =     18.33694  eV     2   -->   2 A              
     e( 53 - 54) =     18.54058  eV     2   -->   2 A              
     e( 55 - 58) =     18.60441  eV     4   -->   4 A              
     e( 59 - 62) =     20.09524  eV     4   -->   4 A              
     e( 63 - 64) =     20.13897  eV     2   -->   2 A              

 **************************************************************************

 **************************************************************************

                    xk=(   0.10000,  -0.00000,   0.62475  )

     Band symmetry, C_1 (1)     point group:

     e(  1 -  2) =     -7.26451  eV     2   -->   2 A              
     e(  3 -  6) =     -5.84284  eV     4   -->   4 A              
     e(  7 -  8) =     -5.80863  eV     2   -->   2 A              
     e(  9 - 10) =      1.34902  eV     2   -->   2 A              
     e( 11 - 14) =      1.37901  eV     4   -->   4 A              
     e( 15 - 16) =      3.60653  eV     2   -->   2 A              
     e( 17 - 18) =      5.22120  eV     2   -->   2 A              
     e( 19 - 22) =      5.39115  eV     4   -->   4 A              
     e( 23 - 26) =      5.66019  eV     4   -->   4 A              
     e( 27 - 28) =      5.76111  eV     2   -->   2 A              
     e( 29 - 30) =      6.33749  eV     2   -->   2 A              
     e( 31 - 32) =      6.39413  eV     2   -->   2 A              
     e( 33 - 36) =     12.18765  eV     4   -->   4 A              
     e( 37 - 38) =     12.22612  eV     2   -->   2 A              
     e( 39 - 40) =     13.36861  eV     2   -->   2 A              
     e( 41 - 44) =     16.11568  eV     4   -->   4 A              
     e( 45 - 46) =     16.12048  eV     2   -->   2 A              
     e( 47 - 48) =     16.96851  eV     2   -->   2 A              
     e( 49 - 50) =     18.35078  eV     2   -->   2 A              
     e( 51 - 52) =     18.38157  eV     2   -->   2 A              
     e( 53 - 54) =     18.44163  eV     2   -->   2 A              
     e( 55 - 58) =     18.57178  eV     4   -->   4 A              
     e( 59 - 62) =     20.11207  eV     4   -->   4 A              
     e( 63 - 64) =     20.19946  eV     2   -->   2 A              

 **************************************************************************

 **************************************************************************

                    xk=(   0.13333,  -0.00000,   0.62475  )

     Band symmetry, C_1 (1)     point group:

     e(  1 -  2) =     -7.24819  eV     2   -->   2 A              
     e(  3 -  6) =     -5.86167  eV     4   -->   4 A              
     e(  7 -  8) =     -5.80149  eV     2   -->   2 A              
     e(  9 - 10) =      1.36923  eV     2   -->   2 A              
     e( 11 - 14) =      1.42178  eV     4   -->   4 A              
     e( 15 - 16) =      3.60223  eV     2   -->   2 A              
     e( 17 - 18) =      5.09622  eV     2   -->   2 A              
     e( 19 - 22) =      5.34467  eV     4   -->   4 A              
     e( 23 - 26) =      5.68655  eV     4   -->   4 A              
     e( 27 - 28) =      5.81457  eV     2   -->   2 A              
     e( 29 - 30) =      6.28086  eV     2   -->   2 A              
     e( 31 - 32) =      6.37824  eV     2   -->   2 A              
     e( 33 - 36) =     12.23136  eV     4   -->   4 A              
     e( 37 - 38) =     12.29712  eV     2   -->   2 A              
     e( 39 - 40) =     13.41830  eV     2   -->   2 A              
     e( 41 - 44) =     16.14169  eV     4   -->   4 A              
     e( 45 - 46) =     16.14603  eV     2   -->   2 A              
     e( 47 - 48) =     16.85906  eV     2   -->   2 A              
     e( 49 - 50) =     18.32520  eV     2   -->   2 A              
     e( 51 - 52) =     18.39455  eV     2   -->   2 A              
     e( 53 - 54) =     18.43086  eV     2   -->   2 A              
     e( 55 - 58) =     18.52937  eV     4   -->   4 A              
     e( 59 - 62) =     20.13178  eV     4   -->   4 A              
     e( 63 - 64) =     20.26654  eV     2   -->   2 A              

 **************************************************************************

 **************************************************************************

                    xk=(   0.16667,  -0.00000,   0.62475  )

     Band symmetry, C_1 (1)     point group:

     e(  1 -  2) =     -7.22731  eV     2   -->   2 A              
     e(  3 -  6) =     -5.88526  eV     4   -->   4 A              
     e(  7 -  8) =     -5.79250  eV     2   -->   2 A              
     e(  9 - 10) =      1.39507  eV     2   -->   2 A              
     e( 11 - 14) =      1.47563  eV     4   -->   4 A              
     e( 15 - 16) =      3.59571  eV     2   -->   2 A              
     e( 17 - 18) =      4.96083  eV     2   -->   2 A              
     e( 19 - 22) =      5.29684  eV     4   -->   4 A              
     e( 23 - 26) =      5.70958  eV     4   -->   4 A              
     e( 27 - 28) =      5.86173  eV     2   -->   2 A              
     e( 29 - 30) =      6.21194  eV     2   -->   2 A              
     e( 31 - 32) =      6.35771  eV     2   -->   2 A              
     e( 33 - 36) =     12.28663  eV     4   -->   4 A              
     e( 37 - 38) =     12.38454  eV     2   -->   2 A              
     e( 39 - 40) =     13.47724  eV     2   -->   2 A              
     e( 41 - 42) =     16.17103  eV     2   -->   2 A              
     e( 43 - 46) =     16.17343  eV     4   -->   4 A              
     e( 47 - 48) =     16.73864  eV     2   -->   2 A              
     e( 49 - 50) =     18.20507  eV     2   -->   2 A              
     e( 51 - 52) =     18.44749  eV     2   -->   2 A              
     e( 53 - 56) =     18.47977  eV     4   -->   4 A              
     e( 57 - 58) =     18.48046  eV     2   -->   2 A              
     e( 59 - 62) =     20.15131  eV     4   -->   4 A              
     e( 63 - 64) =     20.33171  eV     2   -->   2 A              

 **************************************************************************

 **************************************************************************

                    xk=(   0.20000,  -0.00000,   0.62475  )

     Band symmetry, C_1 (1)     point group:

     e(  1 -  2) =     -7.20195  eV     2   -->   2 A              
     e(  3 -  6) =     -5.91321  eV     4   -->   4 A              
     e(  7 -  8) =     -5.78180  eV     2   -->   2 A              
     e(  9 - 10) =      1.42641  eV     2   -->   2 A              
     e( 11 - 14) =      1.53972  eV     4   -->   4 A              
     e( 15 - 16) =      3.58624  eV     2   -->   2 A              
     e( 17 - 18) =      4.81656  eV     2   -->   2 A              
     e( 19 - 22) =      5.24894  eV     4   -->   4 A              
     e( 23 - 26) =      5.72879  eV     4   -->   4 A              
     e( 27 - 28) =      5.90342  eV     2   -->   2 A              
     e( 29 - 30) =      6.13330  eV     2   -->   2 A              
     e( 31 - 32) =      6.33247  eV     2   -->   2 A              
     e( 33 - 36) =     12.35277  eV     4   -->   4 A              
     e( 37 - 38) =     12.48602  eV     2   -->   2 A              
     e( 39 - 40) =     13.54201  eV     2   -->   2 A              
     e( 41 - 42) =     16.18851  eV     2   -->   2 A              
     e( 43 - 46) =     16.20955  eV     4   -->   4 A              
     e( 47 - 48) =     16.61462  eV     2   -->   2 A              
     e( 49 - 50) =     18.09461  eV     2   -->   2 A              
     e( 51 - 54) =     18.42562  eV     4   -->   4 A              
     e( 55 - 56) =     18.49781  eV     2   -->   2 A              
     e( 57 - 58) =     18.53704  eV     2   -->   2 A              
     e( 59 - 62) =     20.16749  eV     4   -->   4 A              
     e( 63 - 64) =     20.38929  eV     2   -->   2 A              

 **************************************************************************

 **************************************************************************

                    xk=(   0.23333,  -0.00000,   0.62475  )

     Band symmetry, C_1 (1)     point group:

     e(  1 -  2) =     -7.17220  eV     2   -->   2 A              
     e(  3 -  6) =     -5.94503  eV     4   -->   4 A              
     e(  7 -  8) =     -5.76958  eV     2   -->   2 A              
     e(  9 - 10) =      1.46310  eV     2   -->   2 A              
     e( 11 - 14) =      1.61303  eV     4   -->   4 A              
     e( 15 - 16) =      3.57290  eV     2   -->   2 A              
     e( 17 - 18) =      4.66505  eV     2   -->   2 A              
     e( 19 - 22) =      5.20205  eV     4   -->   4 A              
     e( 23 - 26) =      5.74402  eV     4   -->   4 A              
     e( 27 - 28) =      5.94048  eV     2   -->   2 A              
     e( 29 - 30) =      6.04780  eV     2   -->   2 A              
     e( 31 - 32) =      6.30248  eV     2   -->   2 A              
     e( 33 - 36) =     12.42891  eV     4   -->   4 A              
     e( 37 - 38) =     12.59910  eV     2   -->   2 A              
     e( 39 - 40) =     13.60871  eV     2   -->   2 A              
     e( 41 - 42) =     16.18967  eV     2   -->   2 A              
     e( 43 - 46) =     16.24842  eV     4   -->   4 A              
     e( 47 - 48) =     16.49323  eV     2   -->   2 A              
     e( 49 - 50) =     18.00683  eV     2   -->   2 A              
     e( 51 - 54) =     18.36951  eV     4   -->   4 A              
     e( 55 - 56) =     18.53055  eV     2   -->   2 A              
     e( 57 - 58) =     18.61198  eV     2   -->   2 A              
     e( 59 - 62) =     20.17735  eV     4   -->   4 A              
     e( 63 - 64) =     20.43612  eV     2   -->   2 A              

 **************************************************************************

 **************************************************************************

                    xk=(   0.26667,  -0.00000,   0.62475  )

     Band symmetry, C_1 (1)     point group:

     e(  1 -  2) =     -7.13818  eV     2   -->   2 A              
     e(  3 -  6) =     -5.98019  eV     4   -->   4 A              
     e(  7 -  8) =     -5.75603  eV     2   -->   2 A              
     e(  9 - 10) =      1.50494  eV     2   -->   2 A              
     e( 11 - 14) =      1.69440  eV     4   -->   4 A              
     e( 15 - 16) =      3.55463  eV     2   -->   2 A              
     e( 17 - 18) =      4.50813  eV     2   -->   2 A              
     e( 19 - 22) =      5.15721  eV     4   -->   4 A              
     e( 23 - 26) =      5.75531  eV     4   -->   4 A              
     e( 27 - 28) =      5.95840  eV     2   -->   2 A              
     e( 29 - 30) =      5.97367  eV     2   -->   2 A              
[...]
     e( 51 - 52) =     18.17315  eV     2   --> A'             
     e( 51 - 52) =     18.17315  eV     2   --> A''            
     e( 53 - 54) =     18.44022  eV     2   --> A'             
     e( 53 - 54) =     18.44022  eV     2   --> A''            
     e( 55 - 56) =     18.98188  eV     2   -->   2 A'             
     e( 57 - 58) =     19.23245  eV     2   -->   2 A''            
     e( 59 - 60) =     19.34925  eV     2   --> A'             
     e( 59 - 60) =     19.34925  eV     2   --> A''            
     e( 61 - 62) =     20.01643  eV     2   -->   2 A''            
     e( 63 - 64) =     21.02382  eV     2   --> A'             
     e( 63 - 64) =     21.02382  eV     2   --> A''            

 **************************************************************************

 **************************************************************************

                    xk=(   0.50000,   0.28868,   0.46856  )

     Band symmetry, C_s (m)     point group:

     e(  1 -  2) =     -6.96756  eV     2   -->   2 A'             
     e(  3 -  4) =     -6.30063  eV     2   -->   2 A'             
     e(  5 -  6) =     -6.01750  eV     2   --> A'             
     e(  5 -  6) =     -6.01750  eV     2   --> A''            
     e(  7 -  8) =     -5.67563  eV     2   --> A'             
     e(  7 -  8) =     -5.67563  eV     2   --> A''            
     e(  9 - 10) =      1.97706  eV     2   --> A'             
     e(  9 - 10) =      1.97706  eV     2   --> A''            
     e( 11 - 12) =      2.11541  eV     2   --> A'             
     e( 11 - 12) =      2.11541  eV     2   --> A''            
     e( 13 - 14) =      2.50460  eV     2   -->   2 A'             
     e( 15 - 16) =      3.35520  eV     2   -->   2 A'             
     e( 17 - 18) =      3.73464  eV     2   --> A'             
     e( 17 - 18) =      3.73464  eV     2   --> A''            
     e( 19 - 20) =      4.29592  eV     2   --> A'             
     e( 19 - 20) =      4.29592  eV     2   --> A''            
     e( 21 - 22) =      4.72661  eV     2   -->   2 A'             
     e( 23 - 24) =      5.45405  eV     2   --> A'             
     e( 23 - 24) =      5.45405  eV     2   --> A''            
     e( 25 - 26) =      5.70024  eV     2   -->   2 A''            
     e( 27 - 28) =      5.93037  eV     2   -->   2 A'             
     e( 29 - 30) =      6.14254  eV     2   -->   2 A''            
     e( 31 - 32) =      6.21312  eV     2   --> A'             
     e( 31 - 32) =      6.21312  eV     2   --> A''            
     e( 33 - 34) =     12.98867  eV     2   -->   2 A'             
     e( 35 - 36) =     13.29685  eV     2   --> A'             
     e( 35 - 36) =     13.29685  eV     2   --> A''            
     e( 37 - 38) =     13.70418  eV     2   --> A'             
     e( 37 - 38) =     13.70418  eV     2   --> A''            
     e( 39 - 40) =     13.83193  eV     2   -->   2 A'             
     e( 41 - 42) =     15.61466  eV     2   --> A'             
     e( 41 - 42) =     15.61466  eV     2   --> A''            
     e( 43 - 44) =     15.85729  eV     2   -->   2 A'             
     e( 45 - 46) =     16.10709  eV     2   --> A'             
     e( 45 - 46) =     16.10709  eV     2   --> A''            
     e( 47 - 48) =     16.67205  eV     2   -->   2 A'             
     e( 49 - 50) =     18.08481  eV     2   -->   2 A'             
     e( 51 - 52) =     18.19359  eV     2   --> A'             
     e( 51 - 52) =     18.19359  eV     2   --> A''            
     e( 53 - 54) =     18.44703  eV     2   --> A'             
     e( 53 - 54) =     18.44703  eV     2   --> A''            
     e( 55 - 56) =     18.89633  eV     2   -->   2 A'             
     e( 57 - 58) =     19.29462  eV     2   -->   2 A''            
     e( 59 - 60) =     19.40980  eV     2   --> A'             
     e( 59 - 60) =     19.40980  eV     2   --> A''            
     e( 61 - 62) =     19.96253  eV     2   -->   2 A''            
     e( 63 - 64) =     20.83008  eV     2   --> A'             
     e( 63 - 64) =     20.83008  eV     2   --> A''            

 **************************************************************************

 **************************************************************************

                    xk=(   0.50000,   0.28868,   0.49980  )

     Band symmetry, C_s (m)     point group:

     e(  1 -  2) =     -6.90873  eV     2   -->   2 A'             
     e(  3 -  4) =     -6.37097  eV     2   -->   2 A'             
     e(  5 -  6) =     -5.98440  eV     2   --> A'             
     e(  5 -  6) =     -5.98440  eV     2   --> A''            
     e(  7 -  8) =     -5.70816  eV     2   --> A'             
     e(  7 -  8) =     -5.70816  eV     2   --> A''            
     e(  9 - 10) =      1.96563  eV     2   --> A'             
     e(  9 - 10) =      1.96563  eV     2   --> A''            
     e( 11 - 12) =      2.08493  eV     2   --> A'             
     e( 11 - 12) =      2.08493  eV     2   --> A''            
     e( 13 - 14) =      2.58241  eV     2   -->   2 A'             
     e( 15 - 16) =      3.26894  eV     2   -->   2 A'             
     e( 17 - 18) =      3.76617  eV     2   --> A'             
     e( 17 - 18) =      3.76617  eV     2   --> A''            
     e( 19 - 20) =      4.22673  eV     2   --> A'             
     e( 19 - 20) =      4.22673  eV     2   --> A''            
     e( 21 - 22) =      4.84610  eV     2   -->   2 A'             
     e( 23 - 24) =      5.57912  eV     2   --> A'             
     e( 23 - 24) =      5.57912  eV     2   --> A''            
     e( 25 - 26) =      5.74039  eV     2   -->   2 A''            
     e( 27 - 28) =      5.82524  eV     2   -->   2 A'             
     e( 29 - 30) =      6.09734  eV     2   -->   2 A''            
     e( 31 - 32) =      6.19936  eV     2   --> A'             
     e( 31 - 32) =      6.19936  eV     2   --> A''            
     e( 33 - 34) =     13.04573  eV     2   -->   2 A'             
     e( 35 - 36) =     13.33917  eV     2   --> A'             
     e( 35 - 36) =     13.33917  eV     2   --> A''            
     e( 37 - 38) =     13.64359  eV     2   --> A'             
     e( 37 - 38) =     13.64359  eV     2   --> A''            
     e( 39 - 40) =     13.73649  eV     2   -->   2 A'             
     e( 41 - 42) =     15.65149  eV     2   --> A'             
     e( 41 - 42) =     15.65149  eV     2   --> A''            
     e( 43 - 44) =     15.95396  eV     2   -->   2 A'             
     e( 45 - 46) =     16.04648  eV     2   --> A'             
     e( 45 - 46) =     16.04648  eV     2   --> A''            
     e( 47 - 48) =     16.61646  eV     2   -->   2 A'             
     e( 49 - 50) =     18.13756  eV     2   -->   2 A'             
     e( 51 - 52) =     18.22089  eV     2   --> A'             
     e( 51 - 52) =     18.22089  eV     2   --> A''            
     e( 53 - 54) =     18.44398  eV     2   --> A'             
     e( 53 - 54) =     18.44398  eV     2   --> A''            
     e( 55 - 56) =     18.80468  eV     2   -->   2 A'             
     e( 57 - 58) =     19.35930  eV     2   -->   2 A''            
     e( 59 - 60) =     19.48525  eV     2   --> A'             
     e( 59 - 60) =     19.48525  eV     2   --> A''            
     e( 61 - 62) =     19.90310  eV     2   -->   2 A''            
     e( 63 - 64) =     20.63855  eV     2   --> A'             
     e( 63 - 64) =     20.63855  eV     2   --> A''            

 **************************************************************************

 **************************************************************************

                    xk=(   0.50000,   0.28868,   0.53103  )

     Band symmetry, C_s (m)     point group:

     e(  1 -  2) =     -6.84735  eV     2   -->   2 A'             
     e(  3 -  4) =     -6.44156  eV     2   -->   2 A'             
     e(  5 -  6) =     -5.95046  eV     2   --> A'             
     e(  5 -  6) =     -5.95046  eV     2   --> A''            
     e(  7 -  8) =     -5.74166  eV     2   --> A'             
     e(  7 -  8) =     -5.74166  eV     2   --> A''            
     e(  9 - 10) =      1.96128  eV     2   --> A'             
     e(  9 - 10) =      1.96128  eV     2   --> A''            
     e( 11 - 12) =      2.05577  eV     2   --> A'             
     e( 11 - 12) =      2.05577  eV     2   --> A''            
     e( 13 - 14) =      2.66280  eV     2   -->   2 A'             
     e( 15 - 16) =      3.18103  eV     2   -->   2 A'             
     e( 17 - 18) =      3.80559  eV     2   --> A'             
     e( 17 - 18) =      3.80559  eV     2   --> A''            
     e( 19 - 20) =      4.15753  eV     2   --> A'             
     e( 19 - 20) =      4.15753  eV     2   --> A''            
     e( 21 - 22) =      4.96976  eV     2   -->   2 A'             
     e( 23 - 24) =      5.69735  eV     2   --> A'             
     e( 23 - 24) =      5.69735  eV     2   --> A''            
     e( 25 - 26) =      5.71346  eV     2   -->   2 A'             
     e( 27 - 28) =      5.78207  eV     2   -->   2 A''            
     e( 29 - 30) =      6.05159  eV     2   -->   2 A''            
     e( 31 - 32) =      6.17019  eV     2   --> A'             
     e( 31 - 32) =      6.17019  eV     2   --> A''            
     e( 33 - 34) =     13.11185  eV     2   -->   2 A'             
     e( 35 - 36) =     13.37647  eV     2   --> A'             
     e( 35 - 36) =     13.37647  eV     2   --> A''            
     e( 37 - 38) =     13.59136  eV     2   --> A'             
     e( 37 - 38) =     13.59136  eV     2   --> A''            
     e( 39 - 40) =     13.63939  eV     2   -->   2 A'             
     e( 41 - 42) =     15.69144  eV     2   --> A'             
     e( 41 - 42) =     15.69144  eV     2   --> A''            
     e( 43 - 44) =     15.98794  eV     2   --> A'             
     e( 43 - 44) =     15.98794  eV     2   --> A''            
     e( 45 - 46) =     16.05026  eV     2   -->   2 A'             
     e( 47 - 48) =     16.55354  eV     2   -->   2 A'             
     e( 49 - 50) =     18.19935  eV     2   -->   2 A'             
     e( 51 - 52) =     18.25291  eV     2   --> A'             
     e( 51 - 52) =     18.25291  eV     2   --> A''            
     e( 53 - 54) =     18.43211  eV     2   --> A'             
     e( 53 - 54) =     18.43211  eV     2   --> A''            
     e( 55 - 56) =     18.70991  eV     2   -->   2 A'             
     e( 57 - 58) =     19.42609  eV     2   -->   2 A''            
     e( 59 - 60) =     19.57674  eV     2   --> A'             
     e( 59 - 60) =     19.57674  eV     2   --> A''            
     e( 61 - 62) =     19.83943  eV     2   -->   2 A''            
     e( 63 - 64) =     20.45211  eV     2   --> A'             
     e( 63 - 64) =     20.45211  eV     2   --> A''            

 **************************************************************************

 **************************************************************************

                    xk=(   0.50000,   0.28868,   0.56227  )

     Band symmetry, C_s (m)     point group:

     e(  1 -  2) =     -6.78366  eV     2   -->   2 A'             
     e(  3 -  4) =     -6.51197  eV     2   -->   2 A'             
     e(  5 -  6) =     -5.91588  eV     2   --> A'             
     e(  5 -  6) =     -5.91588  eV     2   --> A''            
     e(  7 -  8) =     -5.77591  eV     2   --> A'             
     e(  7 -  8) =     -5.77591  eV     2   --> A''            
     e(  9 - 10) =      1.96362  eV     2   --> A'             
     e(  9 - 10) =      1.96362  eV     2   --> A''            
     e( 11 - 12) =      2.02899  eV     2   --> A'             
     e( 11 - 12) =      2.02899  eV     2   --> A''            
     e( 13 - 14) =      2.74550  eV     2   -->   2 A'             
     e( 15 - 16) =      3.09251  eV     2   -->   2 A'             
     e( 17 - 18) =      3.85200  eV     2   --> A'             
     e( 17 - 18) =      3.85200  eV     2   --> A''            
     e( 19 - 20) =      4.08967  eV     2   --> A'             
     e( 19 - 20) =      4.08967  eV     2   --> A''            
     e( 21 - 22) =      5.09590  eV     2   -->   2 A'             
     e( 23 - 24) =      5.59613  eV     2   -->   2 A'             
     e( 25 - 26) =      5.80676  eV     2   --> A'             
     e( 25 - 26) =      5.80676  eV     2   --> A''            
     e( 27 - 28) =      5.82507  eV     2   -->   2 A''            
     e( 29 - 30) =      6.00562  eV     2   -->   2 A''            
     e( 31 - 32) =      6.12569  eV     2   --> A'             
     e( 31 - 32) =      6.12569  eV     2   --> A''            
     e( 33 - 34) =     13.18614  eV     2   -->   2 A'             
     e( 35 - 36) =     13.41011  eV     2   --> A'             
     e( 35 - 36) =     13.41011  eV     2   --> A''            
     e( 37 - 38) =     13.54236  eV     2   -->   2 A'             
     e( 39 - 40) =     13.54662  eV     2   --> A'             
     e( 39 - 40) =     13.54662  eV     2   --> A''            
     e( 41 - 42) =     15.73422  eV     2   --> A'             
     e( 41 - 42) =     15.73422  eV     2   --> A''            
     e( 43 - 44) =     15.93188  eV     2   --> A'             
     e( 43 - 44) =     15.93188  eV     2   --> A''            
     e( 45 - 46) =     16.14490  eV     2   -->   2 A'             
     e( 47 - 48) =     16.48354  eV     2   -->   2 A'             
     e( 49 - 50) =     18.26952  eV     2   -->   2 A'             
     e( 51 - 52) =     18.28750  eV     2   --> A'             
     e( 51 - 52) =     18.28750  eV     2   --> A''            
     e( 53 - 54) =     18.41262  eV     2   --> A'             
     e( 53 - 54) =     18.41262  eV     2   --> A''            
     e( 55 - 56) =     18.61466  eV     2   -->   2 A'             
     e( 57 - 58) =     19.49452  eV     2   -->   2 A''            
     e( 59 - 60) =     19.68485  eV     2   --> A'             
     e( 59 - 60) =     19.68485  eV     2   --> A''            
     e( 61 - 62) =     19.77267  eV     2   -->   2 A''            
     e( 63 - 64) =     20.27355  eV     2   --> A'             
     e( 63 - 64) =     20.27355  eV     2   --> A''            

 **************************************************************************

 **************************************************************************

                    xk=(   0.50000,   0.28868,   0.59351  )

     Band symmetry, C_s (m)     point group:

     e(  1 -  2) =     -6.71795  eV     2   -->   2 A'             
     e(  3 -  4) =     -6.58176  eV     2   -->   2 A'             
     e(  5 -  6) =     -5.88091  eV     2   --> A'             
     e(  5 -  6) =     -5.88091  eV     2   --> A''            
     e(  7 -  8) =     -5.81069  eV     2   --> A'             
     e(  7 -  8) =     -5.81069  eV     2   --> A''            
     e(  9 - 10) =      1.97217  eV     2   --> A'             
     e(  9 - 10) =      1.97217  eV     2   --> A''            
     e( 11 - 12) =      2.00557  eV     2   --> A'             
     e( 11 - 12) =      2.00557  eV     2   --> A''            
     e( 13 - 14) =      2.83019  eV     2   -->   2 A'             
     e( 15 - 16) =      3.00414  eV     2   -->   2 A'             
     e( 17 - 18) =      3.90451  eV     2   --> A'             
     e( 17 - 18) =      3.90451  eV     2   --> A''            
     e( 19 - 20) =      4.02424  eV     2   --> A'             
     e( 19 - 20) =      4.02424  eV     2   --> A''            
     e( 21 - 22) =      5.22299  eV     2   -->   2 A'             
     e( 23 - 24) =      5.47444  eV     2   -->   2 A'             
     e( 25 - 26) =      5.86917  eV     2   -->   2 A''            
     e( 27 - 28) =      5.90565  eV     2   --> A'             
     e( 27 - 28) =      5.90565  eV     2   --> A''            
     e( 29 - 30) =      5.95970  eV     2   -->   2 A''            
     e( 31 - 32) =      6.06623  eV     2   --> A'             
     e( 31 - 32) =      6.06623  eV     2   --> A''            
     e( 33 - 34) =     13.26757  eV     2   -->   2 A'             
     e( 35 - 36) =     13.44186  eV     2   --> A'             
     e( 35 - 36) =     13.44186  eV     2   --> A''            
     e( 37 - 38) =     13.44704  eV     2   -->   2 A'             
     e( 39 - 40) =     13.50802  eV     2   --> A'             
     e( 39 - 40) =     13.50802  eV     2   --> A''            
     e( 41 - 42) =     15.77968  eV     2   --> A'             
     e( 41 - 42) =     15.77968  eV     2   --> A''            
     e( 43 - 44) =     15.87848  eV     2   --> A'             
     e( 43 - 44) =     15.87848  eV     2   --> A''            
     e( 45 - 46) =     16.23665  eV     2   -->   2 A'             
     e( 47 - 48) =     16.40691  eV     2   -->   2 A'             
     e( 49 - 50) =     18.32261  eV     2   --> A'             
     e( 49 - 50) =     18.32261  eV     2   --> A''            
     e( 51 - 52) =     18.34727  eV     2   -->   2 A'             
     e( 53 - 54) =     18.38686  eV     2   --> A'             
     e( 53 - 54) =     18.38686  eV     2   --> A''            
     e( 55 - 56) =     18.52125  eV     2   -->   2 A'             
     e( 57 - 58) =     19.56407  eV     2   -->   2 A''            
     e( 59 - 60) =     19.70392  eV     2   -->   2 A''            
     e( 61 - 62) =     19.80957  eV     2   --> A'             
     e( 61 - 62) =     19.80957  eV     2   --> A''            
     e( 63 - 64) =     20.10549  eV     2   --> A'             
     e( 63 - 64) =     20.10549  eV     2   --> A''            

 **************************************************************************

 **************************************************************************

                    xk=(   0.50000,   0.28868,   0.62475  )

     Band symmetry, C_s (m)     point group:

     e(  1 -  4) =     -6.65057  eV     4   -->   4 A'             
     e(  5 -  8) =     -5.84578  eV     4   -->   2 A'             
     e(  5 -  8) =     -5.84578  eV     4   -->   2 A''            
     e(  9 - 12) =      1.98637  eV     4   -->   2 A'             
     e(  9 - 12) =      1.98637  eV     4   -->   2 A''            
     e( 13 - 16) =      2.91652  eV     4   -->   4 A'             
     e( 17 - 20) =      3.96220  eV     4   -->   2 A'             
     e( 17 - 20) =      3.96220  eV     4   -->   2 A''            
     e( 21 - 24) =      5.34960  eV     4   -->   4 A'             
     e( 25 - 28) =      5.91411  eV     4   -->   4 A''            
     e( 29 - 32) =      5.99254  eV     4   -->   2 A'             
     e( 29 - 32) =      5.99254  eV     4   -->   2 A''            
     e( 33 - 36) =     13.35495  eV     4   -->   4 A'             
     e( 37 - 40) =     13.47375  eV     4   -->   2 A'             
     e( 37 - 40) =     13.47375  eV     4   -->   2 A''            
     e( 41 - 44) =     15.82773  eV     4   -->   2 A'             
     e( 41 - 44) =     15.82773  eV     4   -->   2 A''            
     e( 45 - 48) =     16.32430  eV     4   -->   4 A'             
     e( 49 - 52) =     18.35629  eV     4   -->   2 A'             
     e( 49 - 52) =     18.35629  eV     4   -->   2 A''            
     e( 53 - 56) =     18.43154  eV     4   -->   4 A'             
     e( 57 - 60) =     19.63406  eV     4   -->   4 A''            
     e( 61 - 64) =     19.95019  eV     4   -->   2 A'             
     e( 61 - 64) =     19.95019  eV     4   -->   2 A''            

 **************************************************************************

     BANDS        :  1m26.62s CPU     1m45.16s WALL


   This run was terminated on:  15:22:20  11Aug2024            

=------------------------------------------------------------------------------=
   JOB DONE.
=------------------------------------------------------------------------------=
