
     Program PWSCF v.6.0 (svn rev. 13079) starts on 11Aug2024 at 14:56:53 

     This program is part of the open-source Quantum ESPRESSO suite
     for quantum simulation of materials; please cite
         "P. Giannozzi et al., J. Phys.:Condens. Matter 21 395502 (2009);
          URL http://www.quantum-espresso.org", 
     in publications or presentations arising from this work. More details at
     http://www.quantum-espresso.org/quote

     Parallel version (MPI), running on    48 processors
     R & G space division:  proc/nbgrp/npool/nimage =      48
     Waiting for input...
     Reading input from standard input

     Current dimensions of program PWSCF are:
     Max number of different atomic species (ntypx) = 10
     Max number of k-points (npk) =  40000
     Max angular momentum in pseudopotentials (lmaxx) =  3

     Subspace diagonalization in iterative solution of the eigenvalue problem:
     one sub-group per band group will be used
     ELPA distributed-memory algorithm (size of sub-group:  4*  4 procs)

     Found symmetry operation: I + (  0.0000 -0.5000  0.0000)
     This is a supercell, fractional translations are disabled

     Parallelization info
     --------------------
     sticks:   dense  smooth     PW     G-vecs:    dense   smooth      PW
     Min         110      64     17                 5206     2310     333
     Max         111      65     18                 5209     2313     338
     Sum        5305    3091    847               249947   110939   16127



     bravais-lattice index     =            0
     lattice parameter (alat)  =      11.8243  a.u.
     unit-cell volume          =    1147.9532 (a.u.)^3
     number of atoms/cell      =           16
     number of atomic types    =            2
     number of electrons       =        64.00
     number of Kohn-Sham states=           38
     kinetic-energy cutoff     =      80.0000  Ry
     charge density cutoff     =     550.0000  Ry
     convergence threshold     =      1.0E-08
     mixing beta               =       0.3000
     number of iterations used =            8  TF        mixing
     Exchange-correlation      = PBESOL ( 1  4 10  8 0 0)
     nstep                     =           50


     celldm(1)=  11.824349  celldm(2)=   0.000000  celldm(3)=   0.000000
     celldm(4)=   0.000000  celldm(5)=   0.000000  celldm(6)=   0.000000

     crystal axes: (cart. coord. in units of alat)
               a(1) = (   1.000000   0.000000   0.000000 )  
               a(2) = (  -0.500000   0.866025   0.000000 )  
               a(3) = (   0.000000   0.000000   0.801792 )  

     reciprocal axes: (cart. coord. in units 2 pi/alat)
               b(1) = (  1.000000  0.577350 -0.000000 )  
               b(2) = (  0.000000  1.154701  0.000000 )  
               b(3) = (  0.000000 -0.000000  1.247206 )  


     PseudoPot. # 1 for Al read from file:
     pseudo/Al.pbesol-n-rrkjus_psl.1.0.0.UPF
     MD5 check sum: dbcefca01057e646ce9c389674ce64eb
     Pseudo is Ultrasoft + core correction, Zval =  3.0
     Generated using "atomic" code by A. Dal Corso  v.6.3
     Using radial grid of 1135 points,  6 beta functions with: 
                l(1) =   0
                l(2) =   0
                l(3) =   1
                l(4) =   1
                l(5) =   2
                l(6) =   2
     Q(r) pseudized with 0 coefficients 


     PseudoPot. # 2 for  N read from file:
     pseudo/N.pbesol-n-rrkjus_psl.1.0.0.UPF
     MD5 check sum: 006b6b9dfb5634708511e9f3c875aba4
     Pseudo is Ultrasoft + core correction, Zval =  5.0
     Generated using "atomic" code by A. Dal Corso  v.6.3MaX
     Using radial grid of 1085 points,  4 beta functions with: 
                l(1) =   0
                l(2) =   0
                l(3) =   1
                l(4) =   1
     Q(r) pseudized with 0 coefficients 


     atomic species   valence    mass     pseudopotential
        Al             3.00    26.98150     Al( 1.00)
        N              5.00    14.00670      N( 1.00)

      6 Sym. Ops. (no inversion) found



   Cartesian axes

     site n.     atom                  positions (alat units)
         1           Al  tau(   1) = (   0.2499995   0.1443379   0.4003244  )
         2           Al  tau(   2) = (  -0.0000005   0.5773506   0.4003244  )
         3           Al  tau(   3) = (   0.7499995   0.1443379   0.4003244  )
         4           Al  tau(   4) = (   0.4999995   0.5773506   0.4003244  )
         5           Al  tau(   5) = (   0.0000005   0.2886748   0.8012205  )
         6           Al  tau(   6) = (  -0.2499995   0.7216875   0.8012205  )
         7           Al  tau(   7) = (   0.5000005   0.2886748   0.8012205  )
         8           Al  tau(   8) = (   0.2500005   0.7216875   0.8012205  )
         9           N   tau(   9) = (   0.2499995   0.1443379   0.7061488  )
        10           N   tau(  10) = (  -0.0000005   0.5773506   0.7061488  )
        11           N   tau(  11) = (   0.7499995   0.1443379   0.7061488  )
        12           N   tau(  12) = (   0.4999995   0.5773506   0.7061488  )
        13           N   tau(  13) = (   0.0000005   0.2886748   0.3052527  )
        14           N   tau(  14) = (  -0.2499995   0.7216875   0.3052527  )
        15           N   tau(  15) = (   0.5000005   0.2886748   0.3052527  )
        16           N   tau(  16) = (   0.2500005   0.7216875   0.3052527  )

     number of k points=    18  gaussian smearing, width (Ry)=  0.0200
                       cart. coord. in units 2pi/alat
        k(    1) = (   0.0000000   0.0000000   0.0000000), wk =   0.0208333
        k(    2) = (   0.0000000   0.0000000   0.2078677), wk =   0.0416667
        k(    3) = (   0.0000000   0.0000000   0.4157353), wk =   0.0416667
        k(    4) = (   0.0000000   0.0000000  -0.6236030), wk =   0.0208333
        k(    5) = (   0.0000000   0.2886751   0.0000000), wk =   0.1250000
        k(    6) = (   0.0000000   0.2886751   0.2078677), wk =   0.1250000
        k(    7) = (   0.0000000   0.2886751   0.4157353), wk =   0.1250000
        k(    8) = (   0.0000000   0.2886751  -0.6236030), wk =   0.1250000
        k(    9) = (   0.0000000  -0.5773503   0.0000000), wk =   0.0625000
        k(   10) = (   0.0000000  -0.5773503   0.2078677), wk =   0.1250000
        k(   11) = (   0.0000000  -0.5773503   0.4157353), wk =   0.1250000
        k(   12) = (   0.0000000  -0.5773503  -0.6236030), wk =   0.0625000
        k(   13) = (   0.2500000   0.4330127   0.0000000), wk =   0.1250000
        k(   14) = (   0.2500000   0.4330127   0.2078677), wk =   0.2500000
        k(   15) = (   0.2500000   0.4330127   0.4157353), wk =   0.2500000
        k(   16) = (   0.2500000   0.4330127  -0.6236030), wk =   0.1250000
        k(   17) = (   0.0000000  -0.2886751   0.2078677), wk =   0.1250000
        k(   18) = (   0.0000000  -0.2886751   0.4157353), wk =   0.1250000

     Dense  grid:   249947 G-vectors     FFT dimensions: (  90,  90,  72)

     Smooth grid:   110939 G-vectors     FFT dimensions: (  72,  72,  54)

     Estimated max dynamical RAM per process >       8.84Mb

     Estimated total allocated dynamical RAM >     424.50Mb

     Initial potential from superposition of free atoms

     starting charge   63.98245, renormalised to   64.00000
     Starting wfc are   64 randomized atomic wfcs

     total cpu time spent up to now is        3.9 secs

     per-process dynamical memory:    24.6 Mb

     Self-consistent Calculation

     iteration #  1     ecut=    80.00 Ry     beta=0.30
     Davidson diagonalization with overlap
     c_bands:  4 eigenvalues not converged
     c_bands:  2 eigenvalues not converged
     c_bands:  2 eigenvalues not converged
     c_bands:  3 eigenvalues not converged
     c_bands:  2 eigenvalues not converged
     c_bands:  2 eigenvalues not converged
     c_bands:  1 eigenvalues not converged
     c_bands:  2 eigenvalues not converged
     c_bands:  1 eigenvalues not converged
     c_bands:  1 eigenvalues not converged
     c_bands:  3 eigenvalues not converged
     c_bands:  1 eigenvalues not converged
     c_bands:  1 eigenvalues not converged
     c_bands:  1 eigenvalues not converged
     c_bands:  2 eigenvalues not converged
     c_bands:  1 eigenvalues not converged
     ethr =  1.00E-08,  avg # of iterations = 19.9

     total cpu time spent up to now is       19.3 secs

     total energy              =    -205.39947463 Ry
     Harris-Foulkes estimate   =    -206.52624804 Ry
     estimated scf accuracy    <       4.48837270 Ry

     iteration #  2     ecut=    80.00 Ry     beta=0.30
     Davidson diagonalization with overlap
     ethr =  7.01E-03,  avg # of iterations =  1.0

     total cpu time spent up to now is       22.4 secs

     total energy              =    -204.95750929 Ry
     Harris-Foulkes estimate   =    -205.57699368 Ry
     estimated scf accuracy    <       1.43555992 Ry

     iteration #  3     ecut=    80.00 Ry     beta=0.30
     Davidson diagonalization with overlap
     ethr =  2.24E-03,  avg # of iterations =  2.0

     total cpu time spent up to now is       26.7 secs

     total energy              =    -205.25088840 Ry
     Harris-Foulkes estimate   =    -205.21549198 Ry
     estimated scf accuracy    <       0.16454306 Ry

     iteration #  4     ecut=    80.00 Ry     beta=0.30
     Davidson diagonalization with overlap
     ethr =  2.57E-04,  avg # of iterations =  2.0

     total cpu time spent up to now is       30.9 secs

     total energy              =    -205.02298288 Ry
     Harris-Foulkes estimate   =    -205.35162313 Ry
     estimated scf accuracy    <       1.67351121 Ry

     iteration #  5     ecut=    80.00 Ry     beta=0.30
     Davidson diagonalization with overlap
     ethr =  2.57E-04,  avg # of iterations =  2.0

     total cpu time spent up to now is       35.2 secs

     total energy              =    -205.19056134 Ry
     Harris-Foulkes estimate   =    -205.19809627 Ry
     estimated scf accuracy    <       0.02831341 Ry

     iteration #  6     ecut=    80.00 Ry     beta=0.30
     Davidson diagonalization with overlap
     ethr =  4.42E-05,  avg # of iterations =  2.1

     total cpu time spent up to now is       38.6 secs

     total energy              =    -205.19376975 Ry
     Harris-Foulkes estimate   =    -205.19334168 Ry
     estimated scf accuracy    <       0.00152367 Ry

     iteration #  7     ecut=    80.00 Ry     beta=0.30
     Davidson diagonalization with overlap
     ethr =  2.38E-06,  avg # of iterations =  4.2

     total cpu time spent up to now is       44.3 secs

     total energy              =    -205.19482680 Ry
     Harris-Foulkes estimate   =    -205.19470405 Ry
     estimated scf accuracy    <       0.00354599 Ry

     iteration #  8     ecut=    80.00 Ry     beta=0.30
     Davidson diagonalization with overlap
     ethr =  2.38E-06,  avg # of iterations =  2.0

     total cpu time spent up to now is       47.8 secs

     total energy              =    -205.19355509 Ry
     Harris-Foulkes estimate   =    -205.19498948 Ry
     estimated scf accuracy    <       0.00607709 Ry

     iteration #  9     ecut=    80.00 Ry     beta=0.30
     Davidson diagonalization with overlap
     ethr =  2.38E-06,  avg # of iterations =  2.0

     total cpu time spent up to now is       52.2 secs

     total energy              =    -205.19433263 Ry
     Harris-Foulkes estimate   =    -205.19427107 Ry
     estimated scf accuracy    <       0.00005655 Ry

     iteration # 10     ecut=    80.00 Ry     beta=0.30
     Davidson diagonalization with overlap
     ethr =  8.84E-08,  avg # of iterations =  2.2

     total cpu time spent up to now is       56.5 secs

     total energy              =    -205.19437628 Ry
     Harris-Foulkes estimate   =    -205.19435938 Ry
     estimated scf accuracy    <       0.00023623 Ry

     iteration # 11     ecut=    80.00 Ry     beta=0.30
     Davidson diagonalization with overlap
     ethr =  8.84E-08,  avg # of iterations =  2.0

     total cpu time spent up to now is       59.9 secs

     total energy              =    -205.19432703 Ry
     Harris-Foulkes estimate   =    -205.19438234 Ry
     estimated scf accuracy    <       0.00020048 Ry

     iteration # 12     ecut=    80.00 Ry     beta=0.30
     Davidson diagonalization with overlap
     ethr =  8.84E-08,  avg # of iterations =  2.0

     total cpu time spent up to now is       64.3 secs

     total energy              =    -205.19434023 Ry
     Harris-Foulkes estimate   =    -205.19434477 Ry
     estimated scf accuracy    <       0.00001623 Ry

     iteration # 13     ecut=    80.00 Ry     beta=0.30
     Davidson diagonalization with overlap
     ethr =  2.54E-08,  avg # of iterations =  2.0

     total cpu time spent up to now is       68.5 secs

     total energy              =    -205.19434624 Ry
     Harris-Foulkes estimate   =    -205.19434468 Ry
     estimated scf accuracy    <       0.00000192 Ry

     iteration # 14     ecut=    80.00 Ry     beta=0.30
     Davidson diagonalization with overlap
     ethr =  3.01E-09,  avg # of iterations =  2.8

     total cpu time spent up to now is       72.0 secs

     total energy              =    -205.19434737 Ry
     Harris-Foulkes estimate   =    -205.19434639 Ry
     estimated scf accuracy    <       0.00000063 Ry

     iteration # 15     ecut=    80.00 Ry     beta=0.30
     Davidson diagonalization with overlap
     ethr =  9.86E-10,  avg # of iterations =  2.0

     total cpu time spent up to now is       76.2 secs

     total energy              =    -205.19434758 Ry
     Harris-Foulkes estimate   =    -205.19434769 Ry
     estimated scf accuracy    <       0.00000157 Ry

     iteration # 16     ecut=    80.00 Ry     beta=0.30
     Davidson diagonalization with overlap
     ethr =  9.86E-10,  avg # of iterations =  2.3

     total cpu time spent up to now is       80.5 secs

     total energy              =    -205.19434804 Ry
     Harris-Foulkes estimate   =    -205.19434783 Ry
     estimated scf accuracy    <       0.00000032 Ry

     iteration # 17     ecut=    80.00 Ry     beta=0.30
     Davidson diagonalization with overlap
     ethr =  4.93E-10,  avg # of iterations =  1.0

     total cpu time spent up to now is       83.5 secs

     total energy              =    -205.19434814 Ry
     Harris-Foulkes estimate   =    -205.19434805 Ry
     estimated scf accuracy    <       0.00000024 Ry

     iteration # 18     ecut=    80.00 Ry     beta=0.30
     Davidson diagonalization with overlap
     ethr =  3.79E-10,  avg # of iterations =  2.0

     total cpu time spent up to now is       87.1 secs

     total energy              =    -205.19434823 Ry
     Harris-Foulkes estimate   =    -205.19434820 Ry
     estimated scf accuracy    <       0.00000060 Ry

     iteration # 19     ecut=    80.00 Ry     beta=0.30
     Davidson diagonalization with overlap
     ethr =  3.79E-10,  avg # of iterations =  2.0

     total cpu time spent up to now is       90.5 secs

     total energy              =    -205.19434826 Ry
     Harris-Foulkes estimate   =    -205.19434827 Ry
     estimated scf accuracy    <       0.00000056 Ry

     iteration # 20     ecut=    80.00 Ry     beta=0.30
     Davidson diagonalization with overlap
     ethr =  3.79E-10,  avg # of iterations =  1.2

     total cpu time spent up to now is       93.7 secs

     total energy              =    -205.19434828 Ry
     Harris-Foulkes estimate   =    -205.19434826 Ry
     estimated scf accuracy    <       0.00000034 Ry

     iteration # 21     ecut=    80.00 Ry     beta=0.30
     Davidson diagonalization with overlap
     ethr =  3.79E-10,  avg # of iterations =  1.0

     total cpu time spent up to now is       97.1 secs

     total energy              =    -205.19434825 Ry
     Harris-Foulkes estimate   =    -205.19434828 Ry
     estimated scf accuracy    <       0.00000032 Ry

     iteration # 22     ecut=    80.00 Ry     beta=0.30
     Davidson diagonalization with overlap
     ethr =  3.79E-10,  avg # of iterations =  1.9

     total cpu time spent up to now is      100.6 secs

     total energy              =    -205.19434827 Ry
     Harris-Foulkes estimate   =    -205.19434826 Ry
     estimated scf accuracy    <       0.00000022 Ry

     iteration # 23     ecut=    80.00 Ry     beta=0.30
     Davidson diagonalization with overlap
     ethr =  3.42E-10,  avg # of iterations =  1.0

     total cpu time spent up to now is      104.1 secs

     total energy              =    -205.19434828 Ry
     Harris-Foulkes estimate   =    -205.19434827 Ry
     estimated scf accuracy    <       0.00000017 Ry

     iteration # 24     ecut=    80.00 Ry     beta=0.30
     Davidson diagonalization with overlap
     ethr =  2.66E-10,  avg # of iterations =  2.0

     total cpu time spent up to now is      107.8 secs

     total energy              =    -205.19434826 Ry
     Harris-Foulkes estimate   =    -205.19434829 Ry
     estimated scf accuracy    <       0.00000033 Ry

     iteration # 25     ecut=    80.00 Ry     beta=0.30
     Davidson diagonalization with overlap
     ethr =  2.66E-10,  avg # of iterations =  2.0

     total cpu time spent up to now is      111.2 secs

     total energy              =    -205.19434828 Ry
     Harris-Foulkes estimate   =    -205.19434828 Ry
     estimated scf accuracy    <       0.00000014 Ry

     iteration # 26     ecut=    80.00 Ry     beta=0.30
     Davidson diagonalization with overlap
     ethr =  2.17E-10,  avg # of iterations =  2.0

     total cpu time spent up to now is      114.8 secs

     total energy              =    -205.19434825 Ry
     Harris-Foulkes estimate   =    -205.19434832 Ry
     estimated scf accuracy    <       0.00000039 Ry

     iteration # 27     ecut=    80.00 Ry     beta=0.30
     Davidson diagonalization with overlap
     ethr =  2.17E-10,  avg # of iterations =  2.0

     total cpu time spent up to now is      118.4 secs

     total energy              =    -205.19434828 Ry
     Harris-Foulkes estimate   =    -205.19434828 Ry
     estimated scf accuracy    <       0.00000008 Ry

     iteration # 28     ecut=    80.00 Ry     beta=0.30
     Davidson diagonalization with overlap
     ethr =  1.19E-10,  avg # of iterations =  1.4

     total cpu time spent up to now is      121.7 secs

     total energy              =    -205.19434828 Ry
     Harris-Foulkes estimate   =    -205.19434828 Ry
     estimated scf accuracy    <       0.00000008 Ry

     iteration # 29     ecut=    80.00 Ry     beta=0.30
     Davidson diagonalization with overlap
     ethr =  1.19E-10,  avg # of iterations =  2.0

     total cpu time spent up to now is      125.2 secs

     total energy              =    -205.19434828 Ry
     Harris-Foulkes estimate   =    -205.19434829 Ry
     estimated scf accuracy    <       0.00000009 Ry

     iteration # 30     ecut=    80.00 Ry     beta=0.30
     Davidson diagonalization with overlap
     ethr =  1.19E-10,  avg # of iterations =  1.6

     total cpu time spent up to now is      128.6 secs

     total energy              =    -205.19434829 Ry
     Harris-Foulkes estimate   =    -205.19434828 Ry
     estimated scf accuracy    <       0.00000008 Ry

     iteration # 31     ecut=    80.00 Ry     beta=0.30
     Davidson diagonalization with overlap
     ethr =  1.19E-10,  avg # of iterations =  1.0

     total cpu time spent up to now is      131.7 secs

     total energy              =    -205.19434828 Ry
     Harris-Foulkes estimate   =    -205.19434829 Ry
     estimated scf accuracy    <       0.00000011 Ry

     iteration # 32     ecut=    80.00 Ry     beta=0.30
     Davidson diagonalization with overlap
     ethr =  1.19E-10,  avg # of iterations =  2.0

     total cpu time spent up to now is      135.2 secs

     total energy              =    -205.19434829 Ry
     Harris-Foulkes estimate   =    -205.19434828 Ry
     estimated scf accuracy    <       0.00000004 Ry

     iteration # 33     ecut=    80.00 Ry     beta=0.30
     Davidson diagonalization with overlap
     ethr =  6.77E-11,  avg # of iterations =  2.0

     total cpu time spent up to now is      138.6 secs

     total energy              =    -205.19434830 Ry
     Harris-Foulkes estimate   =    -205.19434830 Ry
     estimated scf accuracy    <       0.00000002 Ry

     iteration # 34     ecut=    80.00 Ry     beta=0.30
     Davidson diagonalization with overlap
     ethr =  2.68E-11,  avg # of iterations =  1.1

     total cpu time spent up to now is      141.7 secs

     total energy              =    -205.19434830 Ry
     Harris-Foulkes estimate   =    -205.19434830 Ry
     estimated scf accuracy    <       0.00000002 Ry

     iteration # 35     ecut=    80.00 Ry     beta=0.30
     Davidson diagonalization with overlap
     ethr =  2.68E-11,  avg # of iterations =  1.7

     total cpu time spent up to now is      144.9 secs

     total energy              =    -205.19434830 Ry
     Harris-Foulkes estimate   =    -205.19434830 Ry
     estimated scf accuracy    <       0.00000002 Ry

     iteration # 36     ecut=    80.00 Ry     beta=0.30
     Davidson diagonalization with overlap
     ethr =  2.68E-11,  avg # of iterations =  2.0

     total cpu time spent up to now is      148.3 secs

     total energy              =    -205.19434830 Ry
     Harris-Foulkes estimate   =    -205.19434831 Ry
     estimated scf accuracy    <       0.00000007 Ry

     iteration # 37     ecut=    80.00 Ry     beta=0.30
     Davidson diagonalization with overlap
     ethr =  2.68E-11,  avg # of iterations =  2.0

     total cpu time spent up to now is      151.9 secs

     total energy              =    -205.19434830 Ry
     Harris-Foulkes estimate   =    -205.19434830 Ry
     estimated scf accuracy    <       0.00000002 Ry

     iteration # 38     ecut=    80.00 Ry     beta=0.30
     Davidson diagonalization with overlap
     ethr =  2.62E-11,  avg # of iterations =  1.0

     total cpu time spent up to now is      154.9 secs

     total energy              =    -205.19434830 Ry
     Harris-Foulkes estimate   =    -205.19434830 Ry
     estimated scf accuracy    <       0.00000001 Ry

     iteration # 39     ecut=    80.00 Ry     beta=0.30
     Davidson diagonalization with overlap
     ethr =  2.19E-11,  avg # of iterations =  2.0

     total cpu time spent up to now is      158.2 secs

     total energy              =    -205.19434830 Ry
     Harris-Foulkes estimate   =    -205.19434830 Ry
     estimated scf accuracy    <       0.00000002 Ry

     iteration # 40     ecut=    80.00 Ry     beta=0.30
     Davidson diagonalization with overlap
     ethr =  2.19E-11,  avg # of iterations =  2.0

     total cpu time spent up to now is      161.6 secs

     total energy              =    -205.19434830 Ry
     Harris-Foulkes estimate   =    -205.19434830 Ry
     estimated scf accuracy    <       0.00000002 Ry

     iteration # 41     ecut=    80.00 Ry     beta=0.30
     Davidson diagonalization with overlap
     ethr =  2.19E-11,  avg # of iterations =  2.0

     total cpu time spent up to now is      164.9 secs

     End of self-consistent calculation

          k = 0.0000 0.0000 0.0000 ( 13887 PWs)   bands (ev):

    -8.2340  -6.2820  -6.2820  -6.2820  -6.1106  -5.5959  -5.5958  -5.5958
     0.8454   1.3883   1.3883   1.3884   2.6667   2.6668   2.6668   3.4924
     3.4924   3.4925   4.7541   4.7541   4.7542   5.0495   5.0496   5.0496
     5.9827   5.9828   6.1458   6.1458   6.1458   6.6307   6.6307   6.8298
    10.8025  12.4663  12.4663  12.4678  12.4678  12.4678

          k = 0.0000 0.0000 0.2079 ( 13917 PWs)   bands (ev):

    -8.1289  -6.3159  -6.2312  -6.2312  -6.2312  -5.6336  -5.6335  -5.6335
     1.2135   1.2446   1.2446   1.2446   2.3010   2.3011   2.3011   3.8781
     3.8781   3.8782   4.8308   4.8308   4.8309   5.3916   5.3917   5.3917
     6.0237   6.0238   6.0302   6.0302   6.0302   6.2169   6.5849   6.5849
    11.3066  11.9896  11.9896  11.9897  12.5276  12.5276

          k = 0.0000 0.0000 0.4157 ( 13851 PWs)   bands (ev):

    -7.8243  -6.8042  -6.0941  -6.0941  -6.0941  -5.7451  -5.7450  -5.7450
     1.1064   1.1065   1.1065   1.6849   1.6849   1.6849   2.1795   4.6920
     4.6920   4.6921   4.9225   5.0497   5.0497   5.0497   5.7356   5.7356
     5.7356   5.7503   5.7503   5.7503   6.1376   6.1376   6.4616   6.4616
    11.6034  11.6034  11.6034  12.2639  12.4732  12.4733

          k = 0.0000 0.0000-0.6236 ( 13778 PWs)   bands (ev):

    -7.3566  -7.3566  -5.9134  -5.9134  -5.9134  -5.9134  -5.9134  -5.9134
     1.2429   1.2429   1.2429   1.2429   1.2429   1.2429   3.4903   3.4903
     5.3742   5.3742   5.3742   5.3742   5.3742   5.3742   5.4654   5.4654
     5.4654   5.4654   5.4654   5.4654   6.2972   6.2972   6.2973   6.2973
    11.9523  11.9523  11.9523  11.9523  11.9523  11.9523

          k = 0.0000 0.2887 0.0000 ( 13915 PWs)   bands (ev):

    -8.0379  -6.7514  -6.3326  -6.3326  -6.0011  -5.5551  -5.5525  -5.5525
     1.0802   1.6744   1.6744   1.9381   2.7446   2.8600   2.8600   3.1672
     3.3925   3.3925   4.2508   4.2509   4.8952   5.1070   5.2253   5.2254
     5.6564   5.6564   5.6875   5.7395   5.7940   6.2285   6.5915   6.7388
    11.6452  12.4610  12.4610  12.7301  12.9752  13.3513

          k = 0.0000 0.2887 0.2079 ( 13876 PWs)   bands (ev):

    -7.9355  -6.6785  -6.2778  -6.2777  -6.1937  -5.6420  -5.5991  -5.5991
     1.4127   1.5331   1.5331   1.6969   2.4876   2.4877   2.7068   3.4667
     3.7209   3.7209   4.4237   4.4237   4.9693   5.1542   5.3657   5.3657
     5.5210   5.6791   5.6791   5.7912   5.8459   6.1189   6.5282   6.5296
    11.9644  12.2988  12.2988  12.3062  12.9681  13.3713

          k = 0.0000 0.2887 0.4157 ( 13860 PWs)   bands (ev):

    -7.6394  -6.6567  -6.4741  -6.1283  -6.1282  -5.8753  -5.7330  -5.7330
     1.3932   1.3932   1.5623   1.9242   1.9242   2.1946   2.2787   4.1060
     4.1060   4.4038   4.5693   4.9486   4.9487   5.1638   5.1638   5.1806
     5.4536   5.8387   5.8759   5.9358   5.9878   5.9878   6.1478   6.3604
    11.9681  12.1718  12.1718  12.6875  12.8423  13.1644

          k = 0.0000 0.2887-0.6236 ( 13838 PWs)   bands (ev):

    -7.1869  -7.1869  -6.1821  -6.1820  -5.9269  -5.9269  -5.9269  -5.9269
     1.5162   1.5162   1.5163   1.5163   1.7487   1.7487   3.4201   3.4201
     4.5318   4.5318   4.5319   4.5319   5.3349   5.3349   5.4928   5.4928
     5.7691   5.7691   5.7912   5.7912   5.7912   5.7912   6.1423   6.1423
    12.3042  12.3042  12.5484  12.5484  12.5484  13.4735

          k = 0.0000-0.5774 0.0000 ( 13898 PWs)   bands (ev):

    -7.4912  -7.4912  -6.3776  -6.3776  -5.7424  -5.7424  -5.5150  -5.5150
     1.7552   1.7552   2.2289   2.2289   2.7499   2.7499   3.3031   3.3031
     3.3815   3.3815   3.9744   3.9744   4.3650   4.3650   5.0335   5.0335
     5.2742   5.2742   5.3967   5.3967   6.3926   6.3926   6.4241   6.4241
    12.3898  12.3898  12.8061  12.8061  14.2319  14.2319

          k = 0.0000-0.5774 0.2079 ( 13862 PWs)   bands (ev):

    -7.3981  -7.3981  -6.3193  -6.3193  -5.8952  -5.8952  -5.5699  -5.5699
     1.9015   1.9015   2.2094   2.2094   2.2741   2.2741   3.5410   3.5410
     3.7382   3.7382   4.0011   4.0011   4.1904   4.1904   4.8653   4.8653
     5.3402   5.3402   5.7215   5.7215   6.3277   6.3277   6.3330   6.3331
    12.6182  12.6182  12.6876  12.6876  14.2275  14.2275

          k = 0.0000-0.5774 0.4157 ( 13882 PWs)   bands (ev):

    -7.1313  -7.1313  -6.2761  -6.2761  -6.1593  -6.1593  -5.7238  -5.7238
     1.9236   1.9236   2.0757   2.0757   2.2841   2.2841   3.3813   3.3813
     3.6071   3.6071   4.3039   4.3039   4.4307   4.4307   5.1120   5.1120
     5.5270   5.5270   5.9567   5.9567   6.0678   6.0678   6.0969   6.0969
    12.7183  12.7183  13.0391  13.0391  13.6307  13.6307

          k = 0.0000-0.5774-0.6236 ( 13860 PWs)   bands (ev):

    -6.7310  -6.7309  -6.7309  -6.7309  -5.9402  -5.9402  -5.9402  -5.9402
     1.8970   1.8970   1.8970   1.8970   2.8126   2.8126   2.8126   2.8126
     3.8670   3.8670   3.8670   3.8670   5.2271   5.2271   5.2271   5.2271
     5.7998   5.7998   5.7998   5.7998   5.8584   5.8584   5.8584   5.8584
    13.1622  13.1622  13.1622  13.1622  13.2878  13.2878

          k = 0.2500 0.4330 0.0000 ( 13887 PWs)   bands (ev):

    -7.6656  -7.0118  -7.0118  -5.9473  -5.8155  -5.6286  -5.5851  -5.5851
     1.5360   1.8990   2.3786   2.3786   2.6836   2.6836   3.0412   3.2171
     3.4069   3.4069   4.0520   4.1738   4.3399   4.6506   4.8064   4.8238
     4.8238   5.5856   5.8923   5.8923   6.0122   6.0122   6.2778   6.5237
    11.8623  12.6829  13.4004  13.4004  13.6780  13.6780

          k = 0.2500 0.4330 0.2079 ( 13878 PWs)   bands (ev):

    -7.5692  -6.9302  -6.9302  -5.9819  -5.9167  -5.6981  -5.6981  -5.6389
     1.7702   1.8791   2.1110   2.1110   2.6722   2.9218   2.9218   2.9423
     3.6123   3.6123   4.2215   4.3264   4.4148   4.6314   4.7527   4.7527
     5.2526   5.4699   5.7387   5.7387   6.1603   6.1603   6.1901   6.4614
    12.1826  12.7580  13.0545  13.0545  13.7618  13.7618

          k = 0.2500 0.4330 0.4157 ( 13874 PWs)   bands (ev):

    -7.2919  -6.6988  -6.6988  -6.3914  -5.9915  -5.9914  -5.8387  -5.6762
     1.7869   2.0442   2.0442   2.1313   2.3611   2.6539   2.6539   2.9498
     3.7804   3.8963   4.3543   4.3543   4.7587   4.8634   4.8634   5.4086
     5.4304   5.4304   5.4768   5.8691   5.9738   6.1246   6.1246   6.1367
    12.8132  12.8132  12.8613  13.0481  13.5080  13.5080

          k = 0.2500 0.4330-0.6236 ( 13876 PWs)   bands (ev):

    -6.8729  -6.8729  -6.3605  -6.3604  -6.3604  -6.3604  -5.7472  -5.7472
     1.8160   1.8160   2.2664   2.2664   2.2664   2.2664   3.0938   3.0938
     3.3405   3.3405   4.8802   4.8802   4.8802   4.8803   5.3091   5.3091
     5.6236   5.6236   5.6236   5.6236   5.7962   5.7962   5.9954   5.9955
    13.0406  13.0406  13.0406  13.0406  13.5780  13.5780

          k = 0.0000-0.2887 0.2079 ( 13876 PWs)   bands (ev):

    -7.9355  -6.6785  -6.2778  -6.2777  -6.1937  -5.6420  -5.5991  -5.5991
     1.4127   1.5331   1.5331   1.6969   2.4876   2.4877   2.7068   3.4667
     3.7209   3.7209   4.4237   4.4237   4.9693   5.1542   5.3657   5.3657
     5.5210   5.6791   5.6791   5.7912   5.8459   6.1189   6.5282   6.5296
    11.9644  12.2988  12.2988  12.3062  12.9681  13.3713

          k = 0.0000-0.2887 0.4157 ( 13860 PWs)   bands (ev):

    -7.6394  -6.6567  -6.4741  -6.1283  -6.1282  -5.8753  -5.7330  -5.7330
     1.3932   1.3932   1.5623   1.9242   1.9242   2.1946   2.2787   4.1060
     4.1060   4.4038   4.5693   4.9486   4.9487   5.1638   5.1638   5.1806
     5.4536   5.8387   5.8759   5.9358   5.9878   5.9878   6.1478   6.3604
    11.9681  12.1718  12.1718  12.6875  12.8423  13.1644

     the Fermi energy is     8.8876 ev

!    total energy              =    -205.19434831 Ry
     Harris-Foulkes estimate   =    -205.19434830 Ry
     estimated scf accuracy    <          6.6E-09 Ry

     The total energy is the sum of the following terms:

     one-electron contribution =      -9.84083967 Ry
     hartree contribution      =      45.31971402 Ry
     xc contribution           =     -67.71687433 Ry
     ewald contribution        =    -172.95634833 Ry
     smearing contrib. (-TS)   =      -0.00000000 Ry

     convergence has been achieved in  41 iterations

     Forces acting on atoms (Ry/au):

     atom    1 type  1   force =     0.00000005    0.00000003   -0.00014855
     atom    2 type  1   force =     0.00000000    0.00000000   -0.00014816
     atom    3 type  1   force =    -0.00000005    0.00000003   -0.00014855
     atom    4 type  1   force =     0.00000000   -0.00000006   -0.00014855
     atom    5 type  1   force =     0.00000000    0.00000036   -0.00014758
     atom    6 type  1   force =     0.00000031   -0.00000018   -0.00014758
     atom    7 type  1   force =     0.00000000    0.00000000   -0.00014833
     atom    8 type  1   force =    -0.00000031   -0.00000018   -0.00014758
     atom    9 type  2   force =    -0.00002757   -0.00001592    0.00020302
     atom   10 type  2   force =     0.00000000    0.00000000    0.00001509
     atom   11 type  2   force =     0.00002757   -0.00001592    0.00020302
     atom   12 type  2   force =     0.00000000    0.00003184    0.00020302
     atom   13 type  2   force =     0.00000000   -0.00000538    0.00019879
     atom   14 type  2   force =    -0.00000466    0.00000269    0.00019879
     atom   15 type  2   force =     0.00000000    0.00000000   -0.00003567
     atom   16 type  2   force =     0.00000466    0.00000269    0.00019879

     Total force =     0.000650     Total SCF correction =     0.000031


     entering subroutine stress ...

          total   stress  (Ry/bohr**3)                   (kbar)     P=  -24.30
  -0.00016041   0.00000000   0.00000000        -23.60      0.00      0.00
   0.00000000  -0.00016041   0.00000000          0.00    -23.60      0.00
   0.00000000  -0.00000000  -0.00017481          0.00     -0.00    -25.72


     BFGS Geometry Optimization

     number of scf cycles    =   1
     number of bfgs steps    =   0

     enthalpy new            =    -205.1943483081 Ry

     new trust radius        =       0.0296138926 bohr
     new conv_thr            =       0.0000000100 Ry

     new unit-cell volume =   1133.78805 a.u.^3 (   168.01005 Ang^3 )

CELL_PARAMETERS (angstrom)
   6.232083691   0.000000000   0.000000000
  -3.116041845   5.397142795  -0.000000000
   0.000000000   0.000000000   4.995029797

ATOMIC_POSITIONS (crystal)
Al       0.333333006   0.166667003   0.499271331
Al       0.333333000   0.666667000   0.499271373
Al       0.833332997   0.166667003   0.499271331
Al       0.833332997   0.666666994   0.499271331
Al       0.166667018   0.333333035   0.999271434
Al       0.166667018   0.833332982   0.999271434
Al       0.666667000   0.333333000   0.999271355
Al       0.666666965   0.833332982   0.999271434
N        0.333329891   0.166665446   0.880734414
N        0.333333000   0.666667000   0.880714591
N        0.833334554   0.166665446   0.880734414
N        0.833334554   0.666670109   0.880734414
N        0.166666737   0.333332475   0.380733968
N        0.166666737   0.833333263   0.380733968
N        0.666667000   0.333333000   0.380709238
N        0.666667525   0.833333263   0.380733968



     Writing output data file aln.save
     NEW-OLD atomic charge density approx. for the potential
     extrapolated charge   63.20063, renormalised to   64.00000

     total cpu time spent up to now is      171.2 secs

     per-process dynamical memory:    58.7 Mb

     Self-consistent Calculation

     iteration #  1     ecut=    80.00 Ry     beta=0.30
     Davidson diagonalization with overlap
     ethr =  1.00E-06,  avg # of iterations =  4.4

     total cpu time spent up to now is      178.4 secs

     total energy              =    -205.17736415 Ry
     Harris-Foulkes estimate   =    -205.41260894 Ry
     estimated scf accuracy    <       0.02193999 Ry

     iteration #  2     ecut=    80.00 Ry     beta=0.30
     Davidson diagonalization with overlap
     ethr =  3.43E-05,  avg # of iterations =  2.0

     total cpu time spent up to now is      182.8 secs

     total energy              =    -205.19639958 Ry
     Harris-Foulkes estimate   =    -205.19769022 Ry
     estimated scf accuracy    <       0.00748642 Ry

     iteration #  3     ecut=    80.00 Ry     beta=0.30
     Davidson diagonalization with overlap
     ethr =  1.17E-05,  avg # of iterations =  1.0

     total cpu time spent up to now is      186.2 secs

     total energy              =    -205.19668628 Ry
     Harris-Foulkes estimate   =    -205.19663593 Ry
     estimated scf accuracy    <       0.00474119 Ry

     iteration #  4     ecut=    80.00 Ry     beta=0.30
     Davidson diagonalization with overlap
     ethr =  7.41E-06,  avg # of iterations =  1.1

     total cpu time spent up to now is      189.9 secs

     total energy              =    -205.19729992 Ry
     Harris-Foulkes estimate   =    -205.19677384 Ry
     estimated scf accuracy    <       0.00436311 Ry

     iteration #  5     ecut=    80.00 Ry     beta=0.30
     Davidson diagonalization with overlap
     ethr =  6.82E-06,  avg # of iterations =  1.0

     total cpu time spent up to now is      193.1 secs

     total energy              =    -205.19737549 Ry
     Harris-Foulkes estimate   =    -205.19733009 Ry
     estimated scf accuracy    <       0.00589522 Ry

     iteration #  6     ecut=    80.00 Ry     beta=0.30
     Davidson diagonalization with overlap
     ethr =  6.82E-06,  avg # of iterations =  1.0

     total cpu time spent up to now is      196.3 secs

     total energy              =    -205.19667634 Ry
     Harris-Foulkes estimate   =    -205.19738122 Ry
     estimated scf accuracy    <       0.00606067 Ry

     iteration #  7     ecut=    80.00 Ry     beta=0.30
     Davidson diagonalization with overlap
     ethr =  6.82E-06,  avg # of iterations =  1.0

     total cpu time spent up to now is      199.3 secs

     total energy              =    -205.19530168 Ry
     Harris-Foulkes estimate   =    -205.19671175 Ry
     estimated scf accuracy    <       0.00411270 Ry

     iteration #  8     ecut=    80.00 Ry     beta=0.30
     Davidson diagonalization with overlap
     ethr =  6.43E-06,  avg # of iterations =  1.1

     total cpu time spent up to now is      202.4 secs

     total energy              =    -205.19554675 Ry
     Harris-Foulkes estimate   =    -205.19563393 Ry
     estimated scf accuracy    <       0.00064621 Ry

     iteration #  9     ecut=    80.00 Ry     beta=0.30
     Davidson diagonalization with overlap
     ethr =  1.01E-06,  avg # of iterations =  2.3

     total cpu time spent up to now is      205.8 secs

     total energy              =    -205.19554233 Ry
     Harris-Foulkes estimate   =    -205.19558653 Ry
     estimated scf accuracy    <       0.00032860 Ry

     iteration # 10     ecut=    80.00 Ry     beta=0.30
     Davidson diagonalization with overlap
     ethr =  5.13E-07,  avg # of iterations =  1.7

     total cpu time spent up to now is      209.0 secs

     total energy              =    -205.19548741 Ry
     Harris-Foulkes estimate   =    -205.19555983 Ry
     estimated scf accuracy    <       0.00019079 Ry

     iteration # 11     ecut=    80.00 Ry     beta=0.30
     Davidson diagonalization with overlap
     ethr =  2.98E-07,  avg # of iterations =  2.6

     total cpu time spent up to now is      213.4 secs

     total energy              =    -205.19552152 Ry
     Harris-Foulkes estimate   =    -205.19552405 Ry
     estimated scf accuracy    <       0.00002246 Ry

     iteration # 12     ecut=    80.00 Ry     beta=0.30
     Davidson diagonalization with overlap
     ethr =  3.51E-08,  avg # of iterations =  2.0

     total cpu time spent up to now is      217.2 secs

     total energy              =    -205.19552028 Ry
     Harris-Foulkes estimate   =    -205.19552549 Ry
     estimated scf accuracy    <       0.00001374 Ry

     iteration # 13     ecut=    80.00 Ry     beta=0.30
     Davidson diagonalization with overlap
     ethr =  2.15E-08,  avg # of iterations =  2.0

     total cpu time spent up to now is      221.6 secs

     total energy              =    -205.19551981 Ry
     Harris-Foulkes estimate   =    -205.19552329 Ry
     estimated scf accuracy    <       0.00001630 Ry

     iteration # 14     ecut=    80.00 Ry     beta=0.30
     Davidson diagonalization with overlap
     ethr =  2.15E-08,  avg # of iterations =  2.0

     total cpu time spent up to now is      224.9 secs

     total energy              =    -205.19552157 Ry
     Harris-Foulkes estimate   =    -205.19552166 Ry
     estimated scf accuracy    <       0.00000040 Ry

     iteration # 15     ecut=    80.00 Ry     beta=0.30
     Davidson diagonalization with overlap
     ethr =  6.18E-10,  avg # of iterations =  2.2

     total cpu time spent up to now is      228.6 secs

     total energy              =    -205.19552164 Ry
     Harris-Foulkes estimate   =    -205.19552163 Ry
     estimated scf accuracy    <       0.00000005 Ry

     iteration # 16     ecut=    80.00 Ry     beta=0.30
     Davidson diagonalization with overlap
     ethr =  7.15E-11,  avg # of iterations =  2.4

     total cpu time spent up to now is      232.5 secs

     total energy              =    -205.19552164 Ry
     Harris-Foulkes estimate   =    -205.19552165 Ry
     estimated scf accuracy    <       0.00000011 Ry

     iteration # 17     ecut=    80.00 Ry     beta=0.30
     Davidson diagonalization with overlap
     ethr =  7.15E-11,  avg # of iterations =  2.0

     total cpu time spent up to now is      235.9 secs

     total energy              =    -205.19552165 Ry
     Harris-Foulkes estimate   =    -205.19552165 Ry
     estimated scf accuracy    <       0.00000005 Ry

     iteration # 18     ecut=    80.00 Ry     beta=0.30
     Davidson diagonalization with overlap
     ethr =  7.14E-11,  avg # of iterations =  2.0

     total cpu time spent up to now is      239.2 secs

     total energy              =    -205.19552162 Ry
     Harris-Foulkes estimate   =    -205.19552166 Ry
     estimated scf accuracy    <       0.00000016 Ry

     iteration # 19     ecut=    80.00 Ry     beta=0.30
     Davidson diagonalization with overlap
     ethr =  7.14E-11,  avg # of iterations =  2.0

     total cpu time spent up to now is      243.3 secs

     total energy              =    -205.19552164 Ry
     Harris-Foulkes estimate   =    -205.19552165 Ry
     estimated scf accuracy    <       0.00000004 Ry

     iteration # 20     ecut=    80.00 Ry     beta=0.30
     Davidson diagonalization with overlap
     ethr =  6.12E-11,  avg # of iterations =  2.0

     total cpu time spent up to now is      246.7 secs

     total energy              =    -205.19552164 Ry
     Harris-Foulkes estimate   =    -205.19552165 Ry
     estimated scf accuracy    <       0.00000007 Ry

     iteration # 21     ecut=    80.00 Ry     beta=0.30
     Davidson diagonalization with overlap
     ethr =  6.12E-11,  avg # of iterations =  2.0

     total cpu time spent up to now is      250.3 secs

     total energy              =    -205.19552165 Ry
     Harris-Foulkes estimate   =    -205.19552165 Ry
     estimated scf accuracy    <       0.00000002 Ry

     iteration # 22     ecut=    80.00 Ry     beta=0.30
     Davidson diagonalization with overlap
     ethr =  2.45E-11,  avg # of iterations =  2.0

     total cpu time spent up to now is      253.7 secs

     total energy              =    -205.19552165 Ry
     Harris-Foulkes estimate   =    -205.19552165 Ry
     estimated scf accuracy    <       0.00000003 Ry

     iteration # 23     ecut=    80.00 Ry     beta=0.30
     Davidson diagonalization with overlap
     ethr =  2.45E-11,  avg # of iterations =  1.6

     total cpu time spent up to now is      256.8 secs

     total energy              =    -205.19552164 Ry
     Harris-Foulkes estimate   =    -205.19552165 Ry
     estimated scf accuracy    <       0.00000003 Ry

     iteration # 24     ecut=    80.00 Ry     beta=0.30
     Davidson diagonalization with overlap
     ethr =  2.45E-11,  avg # of iterations =  2.0

     total cpu time spent up to now is      260.3 secs

     End of self-consistent calculation

          k = 0.0000 0.0000 0.0000 ( 13887 PWs)   bands (ev):

    -8.1789  -6.1927  -6.1927  -6.1926  -6.0156  -5.4942  -5.4941  -5.4941
     0.9200   1.4726   1.4726   1.4726   2.7694   2.7695   2.7695   3.5933
     3.5934   3.5934   4.8655   4.8656   4.8656   5.1612   5.1614   5.1614
     6.1055   6.1055   6.2724   6.2725   6.2725   6.7575   6.7576   6.9615
    11.0403  12.6264  12.6266  12.6267  12.6367  12.6367

          k = 0.0000 0.0000 0.2088 ( 13917 PWs)   bands (ev):

    -8.0723  -6.2259  -6.1409  -6.1409  -6.1408  -5.5323  -5.5323  -5.5323
     1.2945   1.3265   1.3265   1.3265   2.3978   2.3978   2.3979   3.9832
     3.9833   3.9833   4.9430   4.9430   4.9430   5.5085   5.5087   5.5087
     6.1468   6.1468   6.1554   6.1554   6.1555   6.3491   6.7115   6.7115
    11.5407  12.1540  12.1541  12.1541  12.6990  12.6991

          k = 0.0000 0.0000 0.4176 ( 13851 PWs)   bands (ev):

    -7.7629  -6.7247  -6.0011  -6.0011  -6.0010  -5.6455  -5.6454  -5.6454
     1.1862   1.1862   1.1862   1.7727   1.7727   1.7728   2.2749   4.8050
     4.8051   4.8051   5.0476   5.1640   5.1641   5.1641   5.8573   5.8574
     5.8574   5.8721   5.8723   5.8723   6.2613   6.2614   6.5874   6.5874
    11.7713  11.7713  11.7713  12.4966  12.6472  12.6472

          k = 0.0000-0.0000-0.6263 ( 13778 PWs)   bands (ev):

    -7.2874  -7.2874  -5.8168  -5.8168  -5.8168  -5.8168  -5.8168  -5.8167
     1.3245   1.3245   1.3245   1.3245   1.3245   1.3246   3.6017   3.6018
     5.4920   5.4920   5.4920   5.4920   5.4920   5.4921   5.5851   5.5851
     5.5852   5.5852   5.5853   5.5853   6.4219   6.4220   6.4220   6.4220
    12.1249  12.1249  12.1250  12.1250  12.1250  12.1250

          k = 0.0000 0.2898-0.0000 ( 13915 PWs)   bands (ev):

    -7.9801  -6.6722  -6.2450  -6.2450  -5.9043  -5.4510  -5.4491  -5.4491
     1.1571   1.7600   1.7601   2.0281   2.8387   2.9658   2.9658   3.2739
     3.4909   3.4909   4.3600   4.3600   5.0077   5.2242   5.3402   5.3403
     5.7786   5.7786   5.8076   5.8595   5.9223   6.3556   6.7192   6.8699
    11.8786  12.6128  12.6129  12.9094  13.1375  13.5273

          k = 0.0000 0.2898 0.2088 ( 13876 PWs)   bands (ev):

    -7.8761  -6.5978  -6.1890  -6.1890  -6.1016  -5.5399  -5.4965  -5.4965
     1.4956   1.6172   1.6172   1.7834   2.5870   2.5871   2.8093   3.5679
     3.8226   3.8226   4.5347   4.5348   5.0826   5.2729   5.4823   5.4824
     5.6484   5.8022   5.8022   5.9116   5.9682   6.2447   6.6553   6.6581
    12.1950  12.4583  12.4583  12.4806  13.1417  13.5476

          k = 0.0000 0.2898 0.4176 ( 13860 PWs)   bands (ev):

    -7.5752  -6.5747  -6.3894  -6.0364  -6.0364  -5.7782  -5.6329  -5.6329
     1.4764   1.4764   1.6483   2.0159   2.0159   2.2909   2.3753   4.2093
     4.2094   4.5136   4.6926   5.0614   5.0614   5.2826   5.2826   5.2960
     5.5728   5.9612   5.9991   6.0575   6.1141   6.1142   6.2718   6.4860
    12.1422  12.3411  12.3411  12.9138  13.0196  13.3424

          k = 0.0000 0.2898-0.6263 ( 13838 PWs)   bands (ev):

    -7.1150  -7.1150  -6.0915  -6.0915  -5.8308  -5.8308  -5.8308  -5.8308
     1.6019   1.6019   1.6019   1.6020   1.8385   1.8385   3.5316   3.5316
     4.6391   4.6391   4.6391   4.6392   5.4534   5.4534   5.6115   5.6115
     5.8900   5.8900   5.9163   5.9163   5.9163   5.9164   6.2659   6.2659
    12.4807  12.4807  12.7244  12.7244  12.7244  12.7244

          k = 0.0000-0.5797 0.0000 ( 13898 PWs)   bands (ev):

    -7.4249  -7.4249  -6.2914  -6.2914  -5.6412  -5.6412  -5.4102  -5.4102
     1.8389   1.8390   2.3156   2.3156   2.8542   2.8543   3.3997   3.3998
     3.4845   3.4846   4.0902   4.0903   4.4850   4.4850   5.1464   5.1465
     5.3899   5.3899   5.5151   5.5152   6.5205   6.5206   6.5519   6.5520
    12.5357  12.5357  13.0238  13.0238  14.4307  14.4307

          k = 0.0000-0.5797 0.2088 ( 13862 PWs)   bands (ev):

    -7.3303  -7.3303  -6.2319  -6.2319  -5.7977  -5.7977  -5.4662  -5.4662
     1.9893   1.9894   2.2982   2.2982   2.3696   2.3696   3.6469   3.6469
     3.8465   3.8465   4.1078   4.1079   4.3065   4.3065   4.9768   4.9768
     5.4565   5.4565   5.8449   5.8451   6.4549   6.4550   6.4598   6.4599
    12.7695  12.7696  12.8959  12.8959  14.4175  14.4176

          k = 0.0000-0.5797 0.4176 ( 13882 PWs)   bands (ev):

    -7.0589  -7.0589  -6.1872  -6.1871  -6.0685  -6.0685  -5.6235  -5.6235
     2.0155   2.0155   2.1681   2.1682   2.3806   2.3807   3.4926   3.4927
     3.7062   3.7062   4.4060   4.4060   4.5406   4.5406   5.2324   5.2324
     5.6451   5.6452   6.0802   6.0803   6.1957   6.1958   6.2210   6.2211
    12.9148  12.9148  13.2040  13.2040  13.8202  13.8203

          k = 0.0000-0.5797-0.6263 ( 13860 PWs)   bands (ev):

    -6.6512  -6.6512  -6.6511  -6.6511  -5.8447  -5.8446  -5.8446  -5.8446
     1.9892   1.9892   1.9892   1.9893   2.9176   2.9176   2.9177   2.9178
     3.9652   3.9652   3.9652   3.9652   5.3436   5.3436   5.3438   5.3438
     5.9207   5.9207   5.9208   5.9208   5.9850   5.9850   5.9851   5.9851
    13.3537  13.3538  13.3538  13.3538  13.4675  13.4675

          k = 0.2510 0.4348-0.0000 ( 13887 PWs)   bands (ev):

    -7.6021  -6.9375  -6.9374  -5.8519  -5.7156  -5.5269  -5.4811  -5.4811
     1.6174   1.9786   2.4701   2.4701   2.7788   2.7788   3.1520   3.3240
     3.5143   3.5143   4.1583   4.2848   4.4540   4.7585   4.9197   4.9406
     4.9406   5.7102   6.0151   6.0152   6.1364   6.1365   6.4028   6.6529
    12.0012  12.9124  13.5838  13.5839  13.8551  13.8552

          k = 0.2510 0.4348 0.2088 ( 13878 PWs)   bands (ev):

    -7.5042  -6.8544  -6.8544  -5.8860  -5.8206  -5.5968  -5.5968  -5.5373
     1.8566   1.9616   2.2019   2.2019   2.7765   3.0234   3.0234   3.0397
     3.7179   3.7179   4.3373   4.4381   4.5193   4.7464   4.8662   4.8662
     5.3723   5.5908   5.8593   5.8593   6.2870   6.2871   6.3141   6.5902
    12.3278  12.9813  13.2396  13.2396  13.9397  13.9398

          k = 0.2510 0.4348 0.4176 ( 13874 PWs)   bands (ev):

    -7.2222  -6.6187  -6.6187  -6.3046  -5.8969  -5.8969  -5.7408  -5.5749
     1.8742   2.1373   2.1373   2.2273   2.4588   2.7564   2.7564   3.0402
     3.8961   3.9942   4.4620   4.4620   4.8725   4.9761   4.9761   5.5247
     5.5481   5.5481   5.6004   5.9957   6.0956   6.2517   6.2518   6.2629
    12.9973  12.9974  13.0231  13.2591  13.6884  13.6886

          k = 0.2510 0.4348-0.6263 ( 13876 PWs)   bands (ev):

    -6.7957  -6.7957  -6.2737  -6.2737  -6.2736  -6.2736  -5.6472  -5.6472
     1.9065   1.9065   2.3642   2.3642   2.3643   2.3643   3.2026   3.2026
     3.4326   3.4326   4.9901   4.9901   4.9901   4.9901   5.4249   5.4249
     5.7468   5.7468   5.7469   5.7469   5.9180   5.9180   6.1235   6.1235
    13.2228  13.2229  13.2230  13.2230  13.7794  13.7795

          k = 0.0000-0.2898 0.2088 ( 13876 PWs)   bands (ev):

    -7.8761  -6.5978  -6.1890  -6.1890  -6.1016  -5.5399  -5.4965  -5.4965
     1.4956   1.6172   1.6172   1.7834   2.5870   2.5871   2.8093   3.5679
     3.8226   3.8226   4.5347   4.5348   5.0826   5.2729   5.4824   5.4824
     5.6484   5.8022   5.8022   5.9116   5.9682   6.2447   6.6553   6.6580
    12.1950  12.4583  12.4583  12.4806  13.1417  13.5476

          k = 0.0000-0.2898 0.4176 ( 13860 PWs)   bands (ev):

    -7.5752  -6.5747  -6.3894  -6.0364  -6.0364  -5.7782  -5.6329  -5.6329
     1.4764   1.4764   1.6483   2.0159   2.0159   2.2909   2.3753   4.2093
     4.2094   4.5136   4.6926   5.0614   5.0614   5.2826   5.2827   5.2960
     5.5728   5.9612   5.9991   6.0575   6.1141   6.1142   6.2718   6.4860
    12.1422  12.3411  12.3411  12.9138  13.0196  13.3425

     the Fermi energy is     9.0504 ev

!    total energy              =    -205.19552164 Ry
     Harris-Foulkes estimate   =    -205.19552165 Ry
     estimated scf accuracy    <          7.2E-09 Ry

     The total energy is the sum of the following terms:

     one-electron contribution =      -8.79969122 Ry
     hartree contribution      =      45.12821232 Ry
     xc contribution           =     -67.85077122 Ry
     ewald contribution        =    -173.67327152 Ry
     smearing contrib. (-TS)   =      -0.00000000 Ry

     convergence has been achieved in  24 iterations

     Forces acting on atoms (Ry/au):

     atom    1 type  1   force =     0.00000702    0.00000405   -0.00045018
     atom    2 type  1   force =     0.00000000   -0.00000000   -0.00046710
     atom    3 type  1   force =    -0.00000702    0.00000405   -0.00045018
     atom    4 type  1   force =     0.00000000   -0.00000810   -0.00045018
     atom    5 type  1   force =     0.00000000    0.00000919   -0.00044759
     atom    6 type  1   force =     0.00000796   -0.00000460   -0.00044759
     atom    7 type  1   force =     0.00000000   -0.00000000   -0.00047654
     atom    8 type  1   force =    -0.00000796   -0.00000460   -0.00044759
     atom    9 type  2   force =     0.00003238    0.00001869    0.00041377
     atom   10 type  2   force =     0.00000000    0.00000000    0.00037952
     atom   11 type  2   force =    -0.00003238    0.00001869    0.00041377
     atom   12 type  2   force =     0.00000000   -0.00003739    0.00041377
     atom   13 type  2   force =     0.00000000   -0.00002744    0.00047435
     atom   14 type  2   force =    -0.00002376    0.00001372    0.00047435
     atom   15 type  2   force =     0.00000000    0.00000000    0.00059311
     atom   16 type  2   force =     0.00002376    0.00001372    0.00047435

     Total force =     0.001829     Total SCF correction =     0.000030


     entering subroutine stress ...

          total   stress  (Ry/bohr**3)                   (kbar)     P=    0.25
   0.00000756   0.00000000   0.00000000          1.11      0.00      0.00
   0.00000000   0.00000756  -0.00000000          0.00      1.11     -0.00
  -0.00000000   0.00000000  -0.00000993         -0.00      0.00     -1.46


     number of scf cycles    =   2
     number of bfgs steps    =   1

     enthalpy old            =    -205.1943483081 Ry
     enthalpy new            =    -205.1955216446 Ry

     CASE: enthalpy_new < enthalpy_old

     new trust radius        =       0.0017667684 bohr
     new conv_thr            =            1.0E-10 Ry

     new unit-cell volume =   1133.87895 a.u.^3 (   168.02352 Ang^3 )

CELL_PARAMETERS (angstrom)
   6.233151191   0.000000000   0.000000000
  -3.116575595   5.398067277   0.000000000
   0.000000000   0.000000000   4.993719343

ATOMIC_POSITIONS (crystal)
Al       0.333333788   0.166667394   0.499224364
Al       0.333333000   0.666667000   0.499222643
Al       0.833332606   0.166667394   0.499224364
Al       0.833332606   0.666666212   0.499224364
Al       0.166667461   0.333333922   0.999224737
Al       0.166667461   0.833332539   0.999224737
Al       0.666667000   0.333333000   0.999221641
Al       0.666666078   0.833332539   0.999224737
N        0.333333487   0.166667244   0.880777609
N        0.333333000   0.666667000   0.880754142
N        0.833332756   0.166667244   0.880777609
N        0.833332756   0.666666513   0.880777609
N        0.166665412   0.333329825   0.380783473
N        0.166665412   0.833334588   0.380783473
N        0.666667000   0.333333000   0.380771022
N        0.666670175   0.833334588   0.380783473



     Writing output data file aln.save
     NEW-OLD atomic charge density approx. for the potential
     extrapolated charge   64.00513, renormalised to   64.00000

     total cpu time spent up to now is      266.5 secs

     per-process dynamical memory:    65.9 Mb

     Self-consistent Calculation

     iteration #  1     ecut=    80.00 Ry     beta=0.30
     Davidson diagonalization with overlap
     ethr =  1.00E-06,  avg # of iterations =  2.0

     Threshold (ethr) on eigenvalues was too large:
     Diagonalizing with lowered threshold

     Davidson diagonalization with overlap
     ethr =  1.77E-09,  avg # of iterations =  2.4

     total cpu time spent up to now is      274.0 secs

     total energy              =    -205.19552925 Ry
     Harris-Foulkes estimate   =    -205.19417849 Ry
     estimated scf accuracy    <       0.00000134 Ry

     iteration #  2     ecut=    80.00 Ry     beta=0.30
     Davidson diagonalization with overlap
     ethr =  2.10E-09,  avg # of iterations =  2.9

     total cpu time spent up to now is      278.5 secs

     total energy              =    -205.19553025 Ry
     Harris-Foulkes estimate   =    -205.19553088 Ry
     estimated scf accuracy    <       0.00001237 Ry

     iteration #  3     ecut=    80.00 Ry     beta=0.30
     Davidson diagonalization with overlap
     ethr =  2.10E-09,  avg # of iterations =  2.0

     total cpu time spent up to now is      281.9 secs

     total energy              =    -205.19552883 Ry
     Harris-Foulkes estimate   =    -205.19553034 Ry
     estimated scf accuracy    <       0.00000712 Ry

     iteration #  4     ecut=    80.00 Ry     beta=0.30
     Davidson diagonalization with overlap
     ethr =  2.10E-09,  avg # of iterations =  2.0

     total cpu time spent up to now is      285.7 secs

     total energy              =    -205.19552953 Ry
     Harris-Foulkes estimate   =    -205.19552960 Ry
     estimated scf accuracy    <       0.00000040 Ry

     iteration #  5     ecut=    80.00 Ry     beta=0.30
     Davidson diagonalization with overlap
     ethr =  6.18E-10,  avg # of iterations =  2.0

     total cpu time spent up to now is      289.7 secs

     total energy              =    -205.19552934 Ry
     Harris-Foulkes estimate   =    -205.19552972 Ry
     estimated scf accuracy    <       0.00000193 Ry

     iteration #  6     ecut=    80.00 Ry     beta=0.30
     Davidson diagonalization with overlap
     ethr =  6.18E-10,  avg # of iterations =  2.0

     total cpu time spent up to now is      294.0 secs

     total energy              =    -205.19552951 Ry
     Harris-Foulkes estimate   =    -205.19552955 Ry
     estimated scf accuracy    <       0.00000029 Ry

     iteration #  7     ecut=    80.00 Ry     beta=0.30
     Davidson diagonalization with overlap
     ethr =  4.48E-10,  avg # of iterations =  2.0

     total cpu time spent up to now is      297.3 secs

     total energy              =    -205.19552951 Ry
     Harris-Foulkes estimate   =    -205.19552953 Ry
     estimated scf accuracy    <       0.00000011 Ry

     iteration #  8     ecut=    80.00 Ry     beta=0.30
     Davidson diagonalization with overlap
     ethr =  1.72E-10,  avg # of iterations =  2.0

     total cpu time spent up to now is      300.6 secs

     total energy              =    -205.19552948 Ry
     Harris-Foulkes estimate   =    -205.19552952 Ry
     estimated scf accuracy    <       0.00000011 Ry

     iteration #  9     ecut=    80.00 Ry     beta=0.30
     Davidson diagonalization with overlap
     ethr =  1.72E-10,  avg # of iterations =  2.0

     total cpu time spent up to now is      304.6 secs

     total energy              =    -205.19552950 Ry
     Harris-Foulkes estimate   =    -205.19552950 Ry
     estimated scf accuracy    <          2.3E-09 Ry

     iteration # 10     ecut=    80.00 Ry     beta=0.30
     Davidson diagonalization with overlap
     ethr =  3.58E-12,  avg # of iterations =  2.1

     total cpu time spent up to now is      308.7 secs

     total energy              =    -205.19552950 Ry
     Harris-Foulkes estimate   =    -205.19552950 Ry
     estimated scf accuracy    <       0.00000001 Ry

     iteration # 11     ecut=    80.00 Ry     beta=0.30
     Davidson diagonalization with overlap
     ethr =  3.58E-12,  avg # of iterations =  2.0

     total cpu time spent up to now is      313.1 secs

     total energy              =    -205.19552950 Ry
     Harris-Foulkes estimate   =    -205.19552950 Ry
     estimated scf accuracy    <          1.3E-09 Ry

     iteration # 12     ecut=    80.00 Ry     beta=0.30
     Davidson diagonalization with overlap
     ethr =  2.04E-12,  avg # of iterations =  2.0

     total cpu time spent up to now is      316.7 secs

     total energy              =    -205.19552950 Ry
     Harris-Foulkes estimate   =    -205.19552950 Ry
     estimated scf accuracy    <          6.1E-10 Ry

     iteration # 13     ecut=    80.00 Ry     beta=0.30
     Davidson diagonalization with overlap
     ethr =  9.60E-13,  avg # of iterations =  2.0

     total cpu time spent up to now is      320.2 secs

     total energy              =    -205.19552950 Ry
     Harris-Foulkes estimate   =    -205.19552950 Ry
     estimated scf accuracy    <          7.7E-10 Ry

     iteration # 14     ecut=    80.00 Ry     beta=0.30
     Davidson diagonalization with overlap
     ethr =  9.60E-13,  avg # of iterations =  2.0

     total cpu time spent up to now is      323.6 secs

     End of self-consistent calculation

          k = 0.0000 0.0000 0.0000 ( 13887 PWs)   bands (ev):

    -8.1794  -6.1940  -6.1940  -6.1939  -6.0145  -5.4949  -5.4949  -5.4949
     0.9213   1.4722   1.4722   1.4722   2.7700   2.7700   2.7701   3.5931
     3.5932   3.5932   4.8625   4.8626   4.8626   5.1615   5.1616   5.1616
     6.1022   6.1023   6.2713   6.2714   6.2714   6.7555   6.7555   6.9635
    11.0392  12.6290  12.6291  12.6292  12.6337  12.6337

          k = 0.0000-0.0000 0.2088 ( 13917 PWs)   bands (ev):

    -8.0726  -6.2250  -6.1421  -6.1421  -6.1421  -5.5331  -5.5331  -5.5330
     1.2958   1.3258   1.3258   1.3259   2.3978   2.3979   2.3979   3.9833
     3.9834   3.9834   4.9401   4.9401   4.9401   5.5092   5.5094   5.5094
     6.1436   6.1437   6.1541   6.1542   6.1542   6.3511   6.7093   6.7094
    11.5396  12.1556  12.1556  12.1557  12.6965  12.6966

          k = 0.0000-0.0000 0.4177 ( 13851 PWs)   bands (ev):

    -7.7631  -6.7242  -6.0022  -6.0022  -6.0021  -5.6463  -5.6463  -5.6463
     1.1852   1.1852   1.1852   1.7721   1.7722   1.7722   2.2765   4.8056
     4.8057   4.8057   5.0495   5.1614   5.1615   5.1615   5.8556   5.8557
     5.8557   5.8733   5.8734   5.8734   6.2584   6.2584   6.5850   6.5850
    11.7722  11.7722  11.7722  12.4950  12.6463  12.6463

          k = 0.0000 0.0000-0.6265 ( 13778 PWs)   bands (ev):

    -7.2873  -7.2872  -5.8178  -5.8177  -5.8177  -5.8177  -5.8177  -5.8177
     1.3236   1.3236   1.3236   1.3236   1.3237   1.3237   3.6035   3.6036
     5.4897   5.4898   5.4898   5.4898   5.4899   5.4899   5.5861   5.5863
     5.5863   5.5863   5.5863   5.5863   6.4192   6.4193   6.4193   6.4194
    12.1254  12.1255  12.1255  12.1256  12.1256  12.1256

          k = 0.0000 0.2898-0.0000 ( 13915 PWs)   bands (ev):

    -7.9806  -6.6733  -6.2463  -6.2463  -5.9033  -5.4514  -5.4498  -5.4498
     1.1582   1.7594   1.7594   2.0272   2.8390   2.9659   2.9660   3.2739
     3.4908   3.4908   4.3576   4.3576   5.0047   5.2215   5.3402   5.3403
     5.7779   5.7779   5.8079   5.8564   5.9207   6.3544   6.7174   6.8716
    11.8776  12.6150  12.6151  12.9070  13.1391  13.5243

          k = 0.0000 0.2898 0.2088 ( 13876 PWs)   bands (ev):

    -7.8766  -6.5989  -6.1902  -6.1902  -6.1008  -5.5403  -5.4973  -5.4973
     1.4967   1.6164   1.6164   1.7824   2.5868   2.5869   2.8091   3.5683
     3.8221   3.8222   4.5331   4.5332   5.0797   5.2704   5.4820   5.4821
     5.6472   5.8021   5.8021   5.9085   5.9689   6.2433   6.6534   6.6591
    12.1938  12.4600  12.4600  12.4809  13.1400  13.5452

          k = 0.0000 0.2898 0.4177 ( 13860 PWs)   bands (ev):

    -7.5755  -6.5743  -6.3903  -6.0375  -6.0375  -5.7788  -5.6337  -5.6337
     1.4753   1.4753   1.6471   2.0151   2.0152   2.2901   2.3765   4.2079
     4.2079   4.5146   4.6928   5.0607   5.0607   5.2823   5.2823   5.2934
     5.5707   5.9594   6.0003   6.0546   6.1149   6.1150   6.2715   6.4837
    12.1425  12.3420  12.3421  12.9122  13.0188  13.3419

          k = 0.0000 0.2898-0.6265 ( 13838 PWs)   bands (ev):

    -7.1150  -7.1149  -6.0922  -6.0922  -5.8318  -5.8317  -5.8317  -5.8317
     1.6008   1.6008   1.6009   1.6009   1.8373   1.8374   3.5325   3.5326
     4.6376   4.6376   4.6377   4.6377   5.4546   5.4547   5.6092   5.6093
     5.8886   5.8886   5.9170   5.9171   5.9171   5.9172   6.2633   6.2633
    12.4807  12.4808  12.7249  12.7250  12.7250  12.7251

          k = 0.0000-0.5796 0.0000 ( 13898 PWs)   bands (ev):

    -7.4257  -7.4257  -6.2926  -6.2926  -5.6408  -5.6408  -5.4109  -5.4109
     1.8397   1.8397   2.3146   2.3146   2.8535   2.8535   3.3997   3.3998
     3.4827   3.4828   4.0890   4.0890   4.4842   4.4842   5.1462   5.1463
     5.3868   5.3868   5.5150   5.5151   6.5214   6.5215   6.5505   6.5505
    12.5375  12.5375  13.0228  13.0228  14.4278  14.4278

          k = 0.0000-0.5796 0.2088 ( 13862 PWs)   bands (ev):

    -7.3310  -7.3310  -6.2331  -6.2331  -5.7974  -5.7974  -5.4670  -5.4669
     1.9897   1.9897   2.2973   2.2973   2.3685   2.3685   3.6456   3.6457
     3.8449   3.8449   4.1083   4.1083   4.3055   4.3056   4.9763   4.9764
     5.4535   5.4535   5.8453   5.8454   6.4560   6.4561   6.4582   6.4582
    12.7714  12.7714  12.8949  12.8950  14.4165  14.4166

          k = 0.0000-0.5796 0.4177 ( 13882 PWs)   bands (ev):

    -7.0594  -7.0594  -6.1871  -6.1871  -6.0695  -6.0695  -5.6243  -5.6243
     2.0141   2.0142   2.1671   2.1671   2.3801   2.3802   3.4916   3.4916
     3.7045   3.7045   4.4054   4.4054   4.5405   4.5406   5.2331   5.2332
     5.6424   5.6424   6.0816   6.0816   6.1967   6.1968   6.2190   6.2191
    12.9137  12.9139  13.2056  13.2056  13.8204  13.8205

          k = 0.0000-0.5796-0.6265 ( 13860 PWs)   bands (ev):

    -6.6516  -6.6515  -6.6515  -6.6514  -5.8456  -5.8456  -5.8455  -5.8455
     1.9878   1.9879   1.9879   1.9879   2.9165   2.9167   2.9167   2.9168
     3.9639   3.9639   3.9639   3.9640   5.3446   5.3446   5.3447   5.3448
     5.9183   5.9183   5.9184   5.9184   5.9862   5.9863   5.9863   5.9863
    13.3527  13.3528  13.3530  13.3530  13.4683  13.4684

          k = 0.2510 0.4347-0.0000 ( 13887 PWs)   bands (ev):

    -7.6028  -6.9385  -6.9385  -5.8532  -5.7150  -5.5280  -5.4812  -5.4812
     1.6183   1.9776   2.4705   2.4706   2.7775   2.7775   3.1518   3.3227
     3.5134   3.5134   4.1580   4.2826   4.4523   4.7587   4.9196   4.9384
     4.9384   5.7079   6.0141   6.0141   6.1368   6.1369   6.4013   6.6541
    12.0032  12.9116  13.5843  13.5843  13.8545  13.8546

          k = 0.2510 0.4347 0.2088 ( 13878 PWs)   bands (ev):

    -7.5048  -6.8553  -6.8553  -5.8856  -5.8219  -5.5970  -5.5970  -5.5383
     1.8573   1.9606   2.2011   2.2011   2.7758   3.0227   3.0228   3.0381
     3.7177   3.7178   4.3358   4.4362   4.5193   4.7466   4.8639   4.8639
     5.3726   5.5884   5.8582   5.8583   6.2876   6.2876   6.3125   6.5912
    12.3299  12.9804  13.2396  13.2398  13.9394  13.9396

          k = 0.2510 0.4347 0.4177 ( 13874 PWs)   bands (ev):

    -7.2226  -6.6195  -6.6195  -6.3045  -5.8972  -5.8972  -5.7419  -5.5760
     1.8730   2.1360   2.1361   2.2260   2.4589   2.7553   2.7553   3.0387
     3.8950   3.9937   4.4622   4.4623   4.8717   4.9745   4.9746   5.5227
     5.5466   5.5466   5.6013   5.9967   6.0936   6.2527   6.2527   6.2635
    12.9971  12.9974  13.0250  13.2581  13.6884  13.6886

          k = 0.2510 0.4347-0.6265 ( 13876 PWs)   bands (ev):

    -6.7959  -6.7958  -6.2743  -6.2743  -6.2742  -6.2742  -5.6483  -5.6483
     1.9051   1.9051   2.3628   2.3629   2.3629   2.3630   3.2020   3.2021
     3.4315   3.4316   4.9890   4.9890   4.9891   4.9891   5.4248   5.4249
     5.7471   5.7472   5.7473   5.7473   5.9161   5.9161   6.1247   6.1248
    13.2226  13.2228  13.2229  13.2230  13.7783  13.7786

          k = 0.0000-0.2898 0.2088 ( 13876 PWs)   bands (ev):

    -7.8766  -6.5989  -6.1902  -6.1902  -6.1008  -5.5403  -5.4973  -5.4973
     1.4967   1.6164   1.6164   1.7824   2.5868   2.5869   2.8091   3.5684
     3.8221   3.8221   4.5332   4.5332   5.0797   5.2705   5.4820   5.4821
     5.6472   5.8021   5.8021   5.9085   5.9689   6.2433   6.6534   6.6591
    12.1938  12.4600  12.4601  12.4808  13.1401  13.5452

          k = 0.0000-0.2898 0.4177 ( 13860 PWs)   bands (ev):

    -7.5755  -6.5743  -6.3903  -6.0375  -6.0375  -5.7788  -5.6337  -5.6337
     1.4753   1.4753   1.6470   2.0151   2.0151   2.2901   2.3765   4.2079
     4.2079   4.5146   4.6928   5.0607   5.0608   5.2822   5.2823   5.2934
     5.5706   5.9594   6.0003   6.0546   6.1150   6.1150   6.2715   6.4837
    12.1424  12.3421  12.3422  12.9123  13.0188  13.3419

     the Fermi energy is     9.0481 ev

!    total energy              =    -205.19552950 Ry
     Harris-Foulkes estimate   =    -205.19552950 Ry
     estimated scf accuracy    <          3.6E-11 Ry

     The total energy is the sum of the following terms:

     one-electron contribution =      -8.80812111 Ry
     hartree contribution      =      45.13074813 Ry
     xc contribution           =     -67.84999038 Ry
     ewald contribution        =    -173.66816614 Ry
     smearing contrib. (-TS)   =      -0.00000000 Ry

     convergence has been achieved in  14 iterations

     Forces acting on atoms (Ry/au):

     atom    1 type  1   force =     0.00000275    0.00000159   -0.00042839
     atom    2 type  1   force =     0.00000000   -0.00000000   -0.00045387
     atom    3 type  1   force =    -0.00000275    0.00000159   -0.00042839
     atom    4 type  1   force =     0.00000000   -0.00000318   -0.00042839
     atom    5 type  1   force =     0.00000000    0.00000160   -0.00043545
     atom    6 type  1   force =     0.00000138   -0.00000080   -0.00043545
     atom    7 type  1   force =     0.00000000   -0.00000000   -0.00043141
     atom    8 type  1   force =    -0.00000138   -0.00000080   -0.00043545
     atom    9 type  2   force =    -0.00000355   -0.00000205    0.00043389
     atom   10 type  2   force =     0.00000000   -0.00000000    0.00051213
     atom   11 type  2   force =     0.00000355   -0.00000205    0.00043389
     atom   12 type  2   force =     0.00000000    0.00000410    0.00043389
     atom   13 type  2   force =     0.00000000    0.00001978    0.00039998
     atom   14 type  2   force =     0.00001713   -0.00000989    0.00039998
     atom   15 type  2   force =     0.00000000    0.00000000    0.00046307
     atom   16 type  2   force =    -0.00001713   -0.00000989    0.00039998

     Total force =     0.001742     Total SCF correction =     0.000005


     entering subroutine stress ...

          total   stress  (Ry/bohr**3)                   (kbar)     P=    0.07
   0.00000385   0.00000000   0.00000000          0.57      0.00      0.00
   0.00000000   0.00000385   0.00000000          0.00      0.57      0.00
  -0.00000000   0.00000000  -0.00000617         -0.00      0.00     -0.91


     number of scf cycles    =   3
     number of bfgs steps    =   2

     enthalpy old            =    -205.1955216446 Ry
     enthalpy new            =    -205.1955295002 Ry

     CASE: enthalpy_new < enthalpy_old

     new trust radius        =       0.0019440332 bohr
     new conv_thr            =            1.0E-10 Ry

     new unit-cell volume =   1133.90299 a.u.^3 (   168.02709 Ang^3 )

CELL_PARAMETERS (angstrom)
   6.234117127   0.000000000   0.000000000
  -3.117058564   5.398903802   0.000000000
   0.000000000   0.000000000   4.992277844

ATOMIC_POSITIONS (crystal)
Al       0.333334384   0.166667692   0.499150832
Al       0.333333000   0.666667000   0.499144947
Al       0.833332308   0.166667692   0.499150832
Al       0.833332308   0.666665616   0.499150832
Al       0.166667660   0.333334321   0.999150204
Al       0.166667660   0.833332340   0.999150204
Al       0.666667000   0.333333000   0.999147110
Al       0.666665679   0.833332340   0.999150204
N        0.333333623   0.166667312   0.880851234
N        0.333333000   0.666667000   0.880838672
N        0.833332688   0.166667312   0.880851234
N        0.833332688   0.666666377   0.880851234
N        0.166666519   0.333332037   0.380853279
N        0.166666519   0.833333481   0.380853279
N        0.666667000   0.333333000   0.380852621
N        0.666667963   0.833333481   0.380853279



     Writing output data file aln.save
     NEW-OLD atomic charge density approx. for the potential
     extrapolated charge   64.00136, renormalised to   64.00000

     total cpu time spent up to now is      329.9 secs

     per-process dynamical memory:    70.8 Mb

     Self-consistent Calculation

     iteration #  1     ecut=    80.00 Ry     beta=0.30
     Davidson diagonalization with overlap
     ethr =  1.00E-06,  avg # of iterations =  2.0

     Threshold (ethr) on eigenvalues was too large:
     Diagonalizing with lowered threshold

     Davidson diagonalization with overlap
     ethr =  2.63E-09,  avg # of iterations =  3.0

     total cpu time spent up to now is      338.3 secs

     total energy              =    -205.19553642 Ry
     Harris-Foulkes estimate   =    -205.19517874 Ry
     estimated scf accuracy    <       0.00000104 Ry

     iteration #  2     ecut=    80.00 Ry     beta=0.30
     Davidson diagonalization with overlap
     ethr =  1.63E-09,  avg # of iterations =  2.1

     total cpu time spent up to now is      342.7 secs

     total energy              =    -205.19553515 Ry
     Harris-Foulkes estimate   =    -205.19553732 Ry
     estimated scf accuracy    <       0.00001167 Ry

     iteration #  3     ecut=    80.00 Ry     beta=0.30
     Davidson diagonalization with overlap
     ethr =  1.63E-09,  avg # of iterations =  2.1

     total cpu time spent up to now is      347.1 secs

     total energy              =    -205.19553609 Ry
     Harris-Foulkes estimate   =    -205.19553618 Ry
     estimated scf accuracy    <       0.00000051 Ry

     iteration #  4     ecut=    80.00 Ry     beta=0.30
     Davidson diagonalization with overlap
     ethr =  7.92E-10,  avg # of iterations =  2.0

     total cpu time spent up to now is      350.5 secs

     total energy              =    -205.19553601 Ry
     Harris-Foulkes estimate   =    -205.19553611 Ry
     estimated scf accuracy    <       0.00000025 Ry

     iteration #  5     ecut=    80.00 Ry     beta=0.30
     Davidson diagonalization with overlap
     ethr =  3.87E-10,  avg # of iterations =  2.0

     total cpu time spent up to now is      354.7 secs

     total energy              =    -205.19553605 Ry
     Harris-Foulkes estimate   =    -205.19553605 Ry
     estimated scf accuracy    <       0.00000003 Ry

     iteration #  6     ecut=    80.00 Ry     beta=0.30
     Davidson diagonalization with overlap
     ethr =  5.23E-11,  avg # of iterations =  2.0

     total cpu time spent up to now is      358.1 secs

     total energy              =    -205.19553604 Ry
     Harris-Foulkes estimate   =    -205.19553605 Ry
     estimated scf accuracy    <       0.00000005 Ry

     iteration #  7     ecut=    80.00 Ry     beta=0.30
     Davidson diagonalization with overlap
     ethr =  5.23E-11,  avg # of iterations =  2.0

     total cpu time spent up to now is      361.5 secs

     total energy              =    -205.19553605 Ry
     Harris-Foulkes estimate   =    -205.19553605 Ry
     estimated scf accuracy    <       0.00000001 Ry

     iteration #  8     ecut=    80.00 Ry     beta=0.30
     Davidson diagonalization with overlap
     ethr =  2.27E-11,  avg # of iterations =  2.0

     total cpu time spent up to now is      364.9 secs

     total energy              =    -205.19553605 Ry
     Harris-Foulkes estimate   =    -205.19553605 Ry
     estimated scf accuracy    <          3.4E-09 Ry

     iteration #  9     ecut=    80.00 Ry     beta=0.30
     Davidson diagonalization with overlap
     ethr =  5.38E-12,  avg # of iterations =  1.0

     total cpu time spent up to now is      367.9 secs

     total energy              =    -205.19553605 Ry
     Harris-Foulkes estimate   =    -205.19553605 Ry
     estimated scf accuracy    <          4.5E-09 Ry

     iteration # 10     ecut=    80.00 Ry     beta=0.30
     Davidson diagonalization with overlap
     ethr =  5.38E-12,  avg # of iterations =  2.0

     total cpu time spent up to now is      371.3 secs

     total energy              =    -205.19553605 Ry
     Harris-Foulkes estimate   =    -205.19553605 Ry
     estimated scf accuracy    <          1.3E-09 Ry

     iteration # 11     ecut=    80.00 Ry     beta=0.30
     Davidson diagonalization with overlap
     ethr =  2.01E-12,  avg # of iterations =  2.0

     total cpu time spent up to now is      375.6 secs

     total energy              =    -205.19553605 Ry
     Harris-Foulkes estimate   =    -205.19553605 Ry
     estimated scf accuracy    <          1.9E-09 Ry

     iteration # 12     ecut=    80.00 Ry     beta=0.30
     Davidson diagonalization with overlap
     ethr =  2.01E-12,  avg # of iterations =  2.0

     total cpu time spent up to now is      379.0 secs

     total energy              =    -205.19553605 Ry
     Harris-Foulkes estimate   =    -205.19553605 Ry
     estimated scf accuracy    <          2.1E-10 Ry

     iteration # 13     ecut=    80.00 Ry     beta=0.30
     Davidson diagonalization with overlap
     ethr =  3.32E-13,  avg # of iterations =  2.0

     total cpu time spent up to now is      382.3 secs

     End of self-consistent calculation

          k = 0.0000 0.0000 0.0000 ( 13887 PWs)   bands (ev):

    -8.1795  -6.1948  -6.1948  -6.1947  -6.0129  -5.4951  -5.4951  -5.4951
     0.9232   1.4721   1.4721   1.4722   2.7708   2.7709   2.7709   3.5938
     3.5938   3.5939   4.8599   4.8599   4.8599   5.1629   5.1629   5.1630
     6.0993   6.0994   6.2706   6.2706   6.2707   6.7538   6.7538   6.9671
    11.0393  12.6316  12.6317  12.6329  12.6329  12.6330

          k = 0.0000-0.0000 0.2089 ( 13917 PWs)   bands (ev):

    -8.0727  -6.2236  -6.1429  -6.1429  -6.1428  -5.5333  -5.5332  -5.5332
     1.2979   1.3255   1.3255   1.3256   2.3982   2.3983   2.3983   3.9844
     3.9844   3.9844   4.9376   4.9376   4.9376   5.5111   5.5112   5.5112
     6.1407   6.1408   6.1532   6.1532   6.1533   6.3545   6.7076   6.7076
    11.5397  12.1583  12.1583  12.1584  12.6950  12.6951

          k = 0.0000-0.0000 0.4178 ( 13851 PWs)   bands (ev):

    -7.7629  -6.7232  -6.0027  -6.0027  -6.0027  -5.6465  -5.6465  -5.6465
     1.1847   1.1847   1.1847   1.7720   1.7720   1.7720   2.2790   4.8073
     4.8073   4.8073   5.0526   5.1592   5.1592   5.1592   5.8543   5.8543
     5.8543   5.8756   5.8757   5.8757   6.2557   6.2558   6.5830   6.5830
    11.7742  11.7742  11.7742  12.4949  12.6465  12.6466

          k = 0.0000 0.0000-0.6267 ( 13778 PWs)   bands (ev):

    -7.2868  -7.2867  -5.8181  -5.8181  -5.8181  -5.8181  -5.8181  -5.8181
     1.3231   1.3231   1.3231   1.3231   1.3231   1.3231   3.6064   3.6064
     5.4879   5.4879   5.4879   5.4880   5.4880   5.4880   5.5883   5.5884
     5.5884   5.5884   5.5884   5.5884   6.4169   6.4169   6.4170   6.4170
    12.1271  12.1271  12.1271  12.1272  12.1272  12.1272

          k = 0.0000 0.2897-0.0000 ( 13915 PWs)   bands (ev):

    -7.9808  -6.6739  -6.2470  -6.2470  -5.9019  -5.4511  -5.4500  -5.4500
     1.1600   1.7591   1.7591   2.0267   2.8401   2.9665   2.9666   3.2744
     3.4916   3.4916   4.3556   4.3556   5.0020   5.2190   5.3415   5.3415
     5.7775   5.7775   5.8094   5.8535   5.9195   6.3535   6.7158   6.8749
    11.8777  12.6187  12.6187  12.9055  13.1419  13.5221

          k = 0.0000 0.2897 0.2089 ( 13876 PWs)   bands (ev):

    -7.8767  -6.5995  -6.1909  -6.1909  -6.0996  -5.5401  -5.4975  -5.4974
     1.4986   1.6159   1.6159   1.7817   2.5870   2.5870   2.8094   3.5695
     3.8224   3.8224   4.5320   4.5321   5.0771   5.2684   5.4824   5.4824
     5.6466   5.8028   5.8029   5.9057   5.9708   6.2423   6.6517   6.6613
    12.1939  12.4629  12.4630  12.4823  13.1395  13.5438

          k = 0.0000 0.2897 0.4178 ( 13860 PWs)   bands (ev):

    -7.5754  -6.5735  -6.3908  -6.0380  -6.0380  -5.7787  -5.6340  -5.6339
     1.4746   1.4746   1.6463   2.0148   2.0148   2.2898   2.3785   4.2070
     4.2070   4.5164   4.6940   5.0606   5.0606   5.2826   5.2826   5.2910
     5.5689   5.9580   6.0027   6.0520   6.1169   6.1169   6.2718   6.4818
    12.1437  12.3441  12.3442  12.9120  13.0192  13.3424

          k = 0.0000 0.2897-0.6267 ( 13838 PWs)   bands (ev):

    -7.1145  -7.1145  -6.0924  -6.0924  -5.8321  -5.8321  -5.8321  -5.8321
     1.6001   1.6002   1.6002   1.6002   1.8366   1.8367   3.5345   3.5345
     4.6366   4.6367   4.6367   4.6367   5.4569   5.4570   5.6073   5.6074
     5.8876   5.8876   5.9189   5.9189   5.9189   5.9189   6.2610   6.2611
    12.4819  12.4820  12.7266  12.7266  12.7267  12.7267

          k = 0.0000-0.5795 0.0000 ( 13898 PWs)   bands (ev):

    -7.4261  -7.4261  -6.2934  -6.2933  -5.6398  -5.6398  -5.4110  -5.4110
     1.8412   1.8413   2.3138   2.3138   2.8531   2.8531   3.4006   3.4007
     3.4813   3.4813   4.0882   4.0882   4.4838   4.4838   5.1464   5.1464
     5.3840   5.3840   5.5162   5.5162   6.5238   6.5239   6.5493   6.5493
[...]
     Davidson diagonalization with overlap
     ethr =  1.30E-10,  avg # of iterations =  1.0

     total cpu time spent up to now is      688.5 secs

     total energy              =    -205.19550425 Ry
     Harris-Foulkes estimate   =    -205.19550427 Ry
     estimated scf accuracy    <       0.00000013 Ry

     iteration # 68     ecut=    80.00 Ry     beta=0.30
     Davidson diagonalization with overlap
     ethr =  1.30E-10,  avg # of iterations =  2.0

     total cpu time spent up to now is      691.9 secs

     total energy              =    -205.19550426 Ry
     Harris-Foulkes estimate   =    -205.19550426 Ry
     estimated scf accuracy    <       0.00000003 Ry

     iteration # 69     ecut=    80.00 Ry     beta=0.30
     Davidson diagonalization with overlap
     ethr =  5.42E-11,  avg # of iterations =  2.0

     total cpu time spent up to now is      695.2 secs

     total energy              =    -205.19550426 Ry
     Harris-Foulkes estimate   =    -205.19550426 Ry
     estimated scf accuracy    <       0.00000006 Ry

     iteration # 70     ecut=    80.00 Ry     beta=0.30
     Davidson diagonalization with overlap
     ethr =  5.42E-11,  avg # of iterations =  1.0

     total cpu time spent up to now is      698.1 secs

     total energy              =    -205.19550426 Ry
     Harris-Foulkes estimate   =    -205.19550426 Ry
     estimated scf accuracy    <       0.00000007 Ry

     iteration # 71     ecut=    80.00 Ry     beta=0.30
     Davidson diagonalization with overlap
     ethr =  5.42E-11,  avg # of iterations =  2.0

     total cpu time spent up to now is      701.5 secs

     total energy              =    -205.19550425 Ry
     Harris-Foulkes estimate   =    -205.19550426 Ry
     estimated scf accuracy    <       0.00000008 Ry

     iteration # 72     ecut=    80.00 Ry     beta=0.30
     Davidson diagonalization with overlap
     ethr =  5.42E-11,  avg # of iterations =  2.0

     total cpu time spent up to now is      704.8 secs

     total energy              =    -205.19550426 Ry
     Harris-Foulkes estimate   =    -205.19550426 Ry
     estimated scf accuracy    <       0.00000003 Ry

     iteration # 73     ecut=    80.00 Ry     beta=0.30
     Davidson diagonalization with overlap
     ethr =  4.83E-11,  avg # of iterations =  2.0

     total cpu time spent up to now is      708.2 secs

     total energy              =    -205.19550426 Ry
     Harris-Foulkes estimate   =    -205.19550426 Ry
     estimated scf accuracy    <       0.00000006 Ry

     iteration # 74     ecut=    80.00 Ry     beta=0.30
     Davidson diagonalization with overlap
     ethr =  4.83E-11,  avg # of iterations =  2.0

     total cpu time spent up to now is      711.5 secs

     total energy              =    -205.19550426 Ry
     Harris-Foulkes estimate   =    -205.19550426 Ry
     estimated scf accuracy    <       0.00000005 Ry

     iteration # 75     ecut=    80.00 Ry     beta=0.30
     Davidson diagonalization with overlap
     ethr =  4.83E-11,  avg # of iterations =  2.0

     total cpu time spent up to now is      715.0 secs

     total energy              =    -205.19550426 Ry
     Harris-Foulkes estimate   =    -205.19550426 Ry
     estimated scf accuracy    <       0.00000007 Ry

     iteration # 76     ecut=    80.00 Ry     beta=0.30
     Davidson diagonalization with overlap
     ethr =  4.83E-11,  avg # of iterations =  2.0

     total cpu time spent up to now is      718.3 secs

     total energy              =    -205.19550426 Ry
     Harris-Foulkes estimate   =    -205.19550426 Ry
     estimated scf accuracy    <       0.00000002 Ry

     iteration # 77     ecut=    80.00 Ry     beta=0.30
     Davidson diagonalization with overlap
     ethr =  2.74E-11,  avg # of iterations =  2.0

     total cpu time spent up to now is      721.7 secs

     total energy              =    -205.19550426 Ry
     Harris-Foulkes estimate   =    -205.19550426 Ry
     estimated scf accuracy    <          5.9E-09 Ry

     iteration # 78     ecut=    80.00 Ry     beta=0.30
     Davidson diagonalization with overlap
     ethr =  9.22E-12,  avg # of iterations =  1.6

     total cpu time spent up to now is      724.8 secs

     total energy              =    -205.19550426 Ry
     Harris-Foulkes estimate   =    -205.19550426 Ry
     estimated scf accuracy    <          2.0E-09 Ry

     iteration # 79     ecut=    80.00 Ry     beta=0.30
     Davidson diagonalization with overlap
     ethr =  3.14E-12,  avg # of iterations =  2.0

     total cpu time spent up to now is      728.2 secs

     total energy              =    -205.19550426 Ry
     Harris-Foulkes estimate   =    -205.19550426 Ry
     estimated scf accuracy    <          2.4E-09 Ry

     iteration # 80     ecut=    80.00 Ry     beta=0.30
     Davidson diagonalization with overlap
     ethr =  3.14E-12,  avg # of iterations =  1.0

     total cpu time spent up to now is      731.2 secs

     total energy              =    -205.19550426 Ry
     Harris-Foulkes estimate   =    -205.19550426 Ry
     estimated scf accuracy    <          1.9E-09 Ry

     iteration # 81     ecut=    80.00 Ry     beta=0.30
     Davidson diagonalization with overlap
     ethr =  3.03E-12,  avg # of iterations =  2.0

     total cpu time spent up to now is      734.5 secs

     total energy              =    -205.19550426 Ry
     Harris-Foulkes estimate   =    -205.19550426 Ry
     estimated scf accuracy    <          9.4E-10 Ry

     iteration # 82     ecut=    80.00 Ry     beta=0.30
     Davidson diagonalization with overlap
     ethr =  1.47E-12,  avg # of iterations =  2.0

     total cpu time spent up to now is      738.2 secs

     total energy              =    -205.19550426 Ry
     Harris-Foulkes estimate   =    -205.19550426 Ry
     estimated scf accuracy    <          3.1E-09 Ry

     iteration # 83     ecut=    80.00 Ry     beta=0.30
     Davidson diagonalization with overlap
     ethr =  1.47E-12,  avg # of iterations =  2.0

     total cpu time spent up to now is      741.8 secs

     total energy              =    -205.19550426 Ry
     Harris-Foulkes estimate   =    -205.19550426 Ry
     estimated scf accuracy    <          1.7E-10 Ry

     iteration # 84     ecut=    80.00 Ry     beta=0.30
     Davidson diagonalization with overlap
     ethr =  2.67E-13,  avg # of iterations =  2.1

     total cpu time spent up to now is      745.9 secs

     total energy              =    -205.19550426 Ry
     Harris-Foulkes estimate   =    -205.19550426 Ry
     estimated scf accuracy    <          1.3E-09 Ry

     iteration # 85     ecut=    80.00 Ry     beta=0.30
     Davidson diagonalization with overlap
     ethr =  2.67E-13,  avg # of iterations =  2.1

     total cpu time spent up to now is      749.9 secs

     total energy              =    -205.19550426 Ry
     Harris-Foulkes estimate   =    -205.19550426 Ry
     estimated scf accuracy    <          2.5E-10 Ry

     iteration # 86     ecut=    80.00 Ry     beta=0.30
     Davidson diagonalization with overlap
     ethr =  2.67E-13,  avg # of iterations =  2.0

     total cpu time spent up to now is      753.6 secs

     total energy              =    -205.19550426 Ry
     Harris-Foulkes estimate   =    -205.19550426 Ry
     estimated scf accuracy    <          7.6E-10 Ry

     iteration # 87     ecut=    80.00 Ry     beta=0.30
     Davidson diagonalization with overlap
     ethr =  2.67E-13,  avg # of iterations =  2.0

     total cpu time spent up to now is      757.3 secs

     End of self-consistent calculation

          k = 0.0000 0.0000 0.0000 ( 13707 PWs)   bands (ev):

    -8.1793  -6.1952  -6.1952  -6.1952  -6.0101  -5.4947  -5.4946  -5.4946
     0.9264   1.4725   1.4725   1.4726   2.7726   2.7727   2.7727   3.5956
     3.5956   3.5956   4.8570   4.8570   4.8570   5.1657   5.1657   5.1658
     6.0960   6.0960   6.2704   6.2704   6.2705   6.7522   6.7522   6.9733
    11.0411  12.6301  12.6301  12.6392  12.6392  12.6393

          k =-0.0000-0.0000 0.2090 ( 13701 PWs)   bands (ev):

    -8.0724  -6.2211  -6.1432  -6.1432  -6.1432  -5.5329  -5.5328  -5.5328
     1.3014   1.3256   1.3256   1.3256   2.3994   2.3995   2.3995   3.9866
     3.9866   3.9867   4.9347   4.9348   4.9348   5.5145   5.5146   5.5146
     6.1375   6.1376   6.1527   6.1527   6.1528   6.3603   6.7058   6.7059
    11.5416  12.1631  12.1631  12.1632  12.6942  12.6943

          k =-0.0000-0.0000 0.4180 ( 13695 PWs)   bands (ev):

    -7.7622  -6.7213  -6.0029  -6.0029  -6.0029  -5.6462  -5.6462  -5.6462
     1.1844   1.1844   1.1844   1.7723   1.7723   1.7723   2.2831   4.8103
     4.8103   4.8104   5.0579   5.1567   5.1567   5.1568   5.8532   5.8532
     5.8532   5.8797   5.8798   5.8798   6.2528   6.2529   6.5809   6.5809
    11.7779  11.7779  11.7780  12.4964  12.6482  12.6482

          k = 0.0000 0.0000-0.6269 ( 13682 PWs)   bands (ev):

    -7.2856  -7.2856  -5.8180  -5.8180  -5.8180  -5.8180  -5.8180  -5.8180
     1.3229   1.3229   1.3229   1.3229   1.3229   1.3229   3.6111   3.6111
     5.4861   5.4861   5.4861   5.4861   5.4861   5.4861   5.5922   5.5922
     5.5922   5.5922   5.5922   5.5923   6.4144   6.4144   6.4145   6.4145
    12.1305  12.1305  12.1306  12.1306  12.1306  12.1307

          k = 0.0000 0.2897-0.0000 ( 13739 PWs)   bands (ev):

    -7.9807  -6.6743  -6.2475  -6.2475  -5.8993  -5.4501  -5.4495  -5.4495
     1.1631   1.7592   1.7592   2.0266   2.8424   2.9679   2.9680   3.2755
     3.4935   3.4935   4.3535   4.3535   4.9990   5.2164   5.3441   5.3442
     5.7777   5.7778   5.8125   5.8502   5.9186   6.3531   6.7145   6.8805
    11.8794  12.6248  12.6249  12.9048  13.1469  13.5205

          k = 0.0000 0.2897 0.2090 ( 13712 PWs)   bands (ev):

    -7.8765  -6.5998  -6.1913  -6.1913  -6.0973  -5.5392  -5.4970  -5.4970
     1.5019   1.6158   1.6158   1.7815   2.5878   2.5879   2.8105   3.5718
     3.8235   3.8235   4.5313   4.5313   5.0742   5.2664   5.4837   5.4837
     5.6466   5.8047   5.8047   5.9026   5.9744   6.2417   6.6502   6.6654
    12.1955  12.4681  12.4682  12.4853  13.1400  13.5431

          k = 0.0000 0.2897 0.4180 ( 13686 PWs)   bands (ev):

    -7.5748  -6.5718  -6.3908  -6.0382  -6.0382  -5.7780  -5.6336  -5.6336
     1.4742   1.4742   1.6457   2.0149   2.0149   2.2899   2.3820   4.2064
     4.2064   4.5197   4.6964   5.0612   5.0612   5.2838   5.2839   5.2885
     5.5672   5.9567   6.0068   6.0492   6.1205   6.1205   6.2730   6.4799
    12.1466  12.3481  12.3482  12.9134  13.0210  13.3443

          k = 0.0000 0.2897-0.6269 ( 13690 PWs)   bands (ev):

    -7.1135  -7.1134  -6.0921  -6.0920  -5.8320  -5.8320  -5.8320  -5.8319
     1.5998   1.5998   1.5998   1.5998   1.8362   1.8363   3.5379   3.5379
     4.6360   4.6360   4.6360   4.6360   5.4610   5.4610   5.6054   5.6054
     5.8869   5.8869   5.9222   5.9223   5.9223   5.9223   6.2586   6.2586
    12.4847  12.4847  12.7300  12.7300  12.7301  12.7301

          k =-0.0000-0.5794 0.0000 ( 13714 PWs)   bands (ev):

    -7.4262  -7.4262  -6.2938  -6.2938  -5.6379  -5.6379  -5.4105  -5.4105
     1.8440   1.8440   2.3134   2.3134   2.8533   2.8533   3.4027   3.4027
     3.4800   3.4800   4.0878   4.0878   4.4839   4.4840   5.1471   5.1471
     5.3809   5.3809   5.5188   5.5188   6.5282   6.5283   6.5485   6.5485
    12.5463  12.5463  13.0242  13.0242  14.4242  14.4243

          k =-0.0000-0.5794 0.2090 ( 13698 PWs)   bands (ev):

    -7.3314  -7.3314  -6.2341  -6.2341  -5.7948  -5.7948  -5.4666  -5.4666
     1.9929   1.9929   2.2963   2.2964   2.3677   2.3677   3.6444   3.6444
     3.8429   3.8429   4.1120   4.1121   4.3052   4.3052   4.9767   4.9767
     5.4478   5.4478   5.8501   5.8501   6.4559   6.4559   6.4630   6.4630
    12.7802  12.7802  12.8965  12.8965  14.4176  14.4176

          k =-0.0000-0.5794 0.4180 ( 13712 PWs)   bands (ev):

    -7.0593  -7.0593  -6.1853  -6.1853  -6.0702  -6.0702  -5.6241  -5.6241
     2.0126   2.0126   2.1662   2.1662   2.3814   2.3814   3.4912   3.4912
     3.7019   3.7019   4.4055   4.4055   4.5424   4.5424   5.2378   5.2378
     5.6373   5.6373   6.0882   6.0882   6.2028   6.2029   6.2159   6.2159
    12.9155  12.9155  13.2134  13.2134  13.8242  13.8242

          k =-0.0000-0.5794-0.6269 ( 13684 PWs)   bands (ev):

    -6.6506  -6.6506  -6.6505  -6.6505  -5.8458  -5.8458  -5.8458  -5.8458
     1.9864   1.9864   1.9864   1.9864   2.9165   2.9165   2.9166   2.9166
     3.9622   3.9622   3.9622   3.9622   5.3496   5.3496   5.3496   5.3497
     5.9141   5.9141   5.9141   5.9141   5.9925   5.9926   5.9926   5.9926
    13.3550  13.3550  13.3550  13.3550  13.4738  13.4738

          k = 0.2509 0.4345-0.0000 ( 13681 PWs)   bands (ev):

    -7.6032  -6.9393  -6.9393  -5.8543  -5.7117  -5.5284  -5.4794  -5.4794
     1.6228   1.9764   2.4743   2.4743   2.7759   2.7759   3.1530   3.3213
     3.5128   3.5128   4.1605   4.2789   4.4499   4.7605   4.9225   4.9348
     4.9348   5.7039   6.0133   6.0133   6.1421   6.1421   6.3993   6.6615
    12.0121  12.9137  13.5896  13.5896  13.8573  13.8574

          k = 0.2509 0.4345 0.2090 ( 13698 PWs)   bands (ev):

    -7.5050  -6.8560  -6.8560  -5.8827  -5.8229  -5.5953  -5.5953  -5.5388
     1.8614   1.9595   2.2014   2.2014   2.7759   3.0229   3.0229   3.0361
     3.7194   3.7194   4.3341   4.4334   4.5207   4.7502   4.8601   4.8601
     5.3769   5.5847   5.8574   5.8574   6.2929   6.2929   6.3102   6.5978
    12.3391  12.9823  13.2439  13.2439  13.9431  13.9431

          k = 0.2509 0.4345 0.4180 ( 13688 PWs)   bands (ev):

    -7.2223  -6.6197  -6.6197  -6.3024  -5.8961  -5.8961  -5.7427  -5.5764
     1.8716   2.1350   2.1350   2.2249   2.4619   2.7546   2.7546   3.0365
     3.8947   3.9938   4.4651   4.4651   4.8716   4.9727   4.9727   5.5198
     5.5449   5.5449   5.6066   6.0026   6.0904   6.2584   6.2584   6.2676
    13.0008  13.0008  13.0335  13.2597  13.6927  13.6927

          k = 0.2509 0.4345-0.6269 ( 13692 PWs)   bands (ev):

    -6.7948  -6.7948  -6.2738  -6.2738  -6.2738  -6.2738  -5.6488  -5.6488
     1.9034   1.9034   2.3617   2.3617   2.3617   2.3617   3.2033   3.2033
     3.4304   3.4304   4.9885   4.9885   4.9885   4.9885   5.4270   5.4270
     5.7508   5.7508   5.7508   5.7508   5.9132   5.9132   6.1311   6.1312
    13.2265  13.2266  13.2266  13.2266  13.7804  13.7804

          k =-0.0000-0.2897 0.2090 ( 13712 PWs)   bands (ev):

    -7.8765  -6.5998  -6.1913  -6.1913  -6.0973  -5.5392  -5.4970  -5.4970
     1.5019   1.6158   1.6158   1.7815   2.5878   2.5879   2.8105   3.5718
     3.8235   3.8235   4.5313   4.5313   5.0742   5.2664   5.4837   5.4837
     5.6466   5.8047   5.8047   5.9026   5.9744   6.2417   6.6502   6.6654
    12.1955  12.4681  12.4681  12.4853  13.1399  13.5431

          k =-0.0000-0.2897 0.4180 ( 13686 PWs)   bands (ev):

    -7.5748  -6.5718  -6.3908  -6.0382  -6.0382  -5.7780  -5.6336  -5.6336
     1.4742   1.4742   1.6457   2.0149   2.0149   2.2899   2.3820   4.2064
     4.2064   4.5197   4.6964   5.0612   5.0612   5.2838   5.2839   5.2885
     5.5672   5.9567   6.0068   6.0492   6.1204   6.1205   6.2730   6.4799
    12.1466  12.3481  12.3481  12.9134  13.0210  13.3443

     the Fermi energy is     9.0455 ev

!    total energy              =    -205.19550426 Ry
     Harris-Foulkes estimate   =    -205.19550426 Ry
     estimated scf accuracy    <          6.2E-11 Ry

     The total energy is the sum of the following terms:

     one-electron contribution =      -8.80845417 Ry
     hartree contribution      =      45.13207121 Ry
     xc contribution           =     -67.85020048 Ry
     ewald contribution        =    -173.66892081 Ry
     smearing contrib. (-TS)   =      -0.00000000 Ry

     convergence has been achieved in  87 iterations

     Forces acting on atoms (Ry/au):

     atom    1 type  1   force =    -0.00000559   -0.00000323   -0.00000501
     atom    2 type  1   force =    -0.00000000   -0.00000000    0.00001794
     atom    3 type  1   force =     0.00000559   -0.00000323   -0.00000501
     atom    4 type  1   force =     0.00000000    0.00000646   -0.00000501
     atom    5 type  1   force =    -0.00000000   -0.00000616   -0.00000270
     atom    6 type  1   force =    -0.00000534    0.00000308   -0.00000270
     atom    7 type  1   force =     0.00000000    0.00000000    0.00000908
     atom    8 type  1   force =     0.00000534    0.00000308   -0.00000270
     atom    9 type  2   force =    -0.00000008   -0.00000005   -0.00000660
     atom   10 type  2   force =     0.00000000    0.00000000   -0.00002483
     atom   11 type  2   force =     0.00000008   -0.00000005   -0.00000660
     atom   12 type  2   force =     0.00000000    0.00000009   -0.00000660
     atom   13 type  2   force =    -0.00000000   -0.00000859    0.00001688
     atom   14 type  2   force =    -0.00000744    0.00000430    0.00001688
     atom   15 type  2   force =    -0.00000000   -0.00000000   -0.00000990
     atom   16 type  2   force =     0.00000744    0.00000430    0.00001688

     Total force =     0.000052     Total SCF correction =     0.000005


     entering subroutine stress ...

          total   stress  (Ry/bohr**3)                   (kbar)     P=   -0.06
  -0.00000055  -0.00000000   0.00000000         -0.08     -0.00      0.00
  -0.00000000  -0.00000055   0.00000000         -0.00     -0.08      0.00
   0.00000000   0.00000000  -0.00000013          0.00      0.00     -0.02


     Writing output data file aln.save

     init_run     :      5.58s CPU      5.77s WALL (       2 calls)
     electrons    :    688.26s CPU    720.82s WALL (       6 calls)
     update_pot   :      4.70s CPU      4.96s WALL (       4 calls)
     forces       :      9.44s CPU      9.98s WALL (       6 calls)
     stress       :     17.20s CPU     17.67s WALL (       6 calls)

     Called by init_run:
     wfcinit      :      3.77s CPU      3.83s WALL (       2 calls)
     potinit      :      0.47s CPU      0.48s WALL (       2 calls)

     Called by electrons:
     c_bands      :    575.59s CPU    603.85s WALL (     195 calls)
     sum_band     :     93.84s CPU     97.38s WALL (     195 calls)
     v_of_rho     :      3.97s CPU      4.19s WALL (     198 calls)
     newd         :     14.02s CPU     14.42s WALL (     198 calls)
     mix_rho      :      0.73s CPU      0.82s WALL (     195 calls)

     Called by c_bands:
     init_us_2    :      3.88s CPU      3.95s WALL (    7272 calls)
     cegterg      :    562.28s CPU    590.24s WALL (    3510 calls)

     Called by sum_band:
     sum_band:bec :      1.43s CPU      1.43s WALL (    3510 calls)
     addusdens    :     12.65s CPU     13.27s WALL (     195 calls)

     Called by *egterg:
     h_psi        :    351.95s CPU    364.76s WALL (   10737 calls)
     s_psi        :     62.76s CPU     62.91s WALL (   10737 calls)
     g_psi        :      0.41s CPU      0.42s WALL (    7191 calls)
     cdiaghg      :     42.90s CPU     47.47s WALL (   10575 calls)

     Called by h_psi:
     h_psi:pot    :    350.99s CPU    363.78s WALL (   10737 calls)
     h_psi:calbec :     84.37s CPU     88.67s WALL (   10737 calls)
     vloc_psi     :    199.26s CPU    207.61s WALL (   10737 calls)
     add_vuspsi   :     67.29s CPU     67.46s WALL (   10737 calls)

     General routines
     calbec       :    123.72s CPU    129.84s WALL (   14787 calls)
     fft          :      6.11s CPU      7.26s WALL (    3310 calls)
     ffts         :      0.27s CPU      0.30s WALL (     393 calls)
     fftw         :    225.03s CPU    234.29s WALL (  773992 calls)
     interpolate  :      0.88s CPU      0.97s WALL (     393 calls)
     davcio       :      0.01s CPU      0.03s WALL (      36 calls)

     Parallel routines
     fft_scatter  :     94.78s CPU    101.42s WALL (  777695 calls)

     PWSCF        : 12m 6.90s CPU    12m41.04s WALL


   This run was terminated on:  15: 9:34  11Aug2024            

=------------------------------------------------------------------------------=
   JOB DONE.
=------------------------------------------------------------------------------=
